Title="LBM for phase change with fin"
dt=1 dx=1
VARIABLES="X","Y","U","V","T","H","fl","pa","Test"
ZONE T="BOX",I=150,J=150,F=POINT
0 0 0 0 0.456312 10714.5 1 1.81786 0.201985
1 0 0 0 0.463108 10721.5 1 1.81786 0.201985
2 0 0 0 0.462719 10721.1 1 1.81785 0.201984
3 0 0 0 0.461242 10719.6 1 1.81785 0.201983
4 0 0 0 0.460059 10718.4 1 1.81785 0.201982
5 0 0 0 0.458862 10717.1 1 1.81784 0.201982
6 0 0 0 0.457531 10715.8 1 1.81784 0.201982
7 0 0 0 0.455994 10714.2 1 1.81784 0.201981
8 0 0 0 0.454227 10712.4 1 1.81784 0.201981
9 0 0 0 0.452203 10710.3 1 1.81784 0.201981
10 0 0 0 0.449914 10708 1 1.81784 0.201981
11 0 0 0 0.447351 10705.3 1 1.81784 0.201981
12 0 0 0 0.444519 10702.4 1 1.81785 0.201982
13 0 0 0 0.441422 10699.3 1 1.81785 0.201982
14 0 0 0 0.438073 10695.8 1 1.81786 0.201983
15 0 0 0 0.434486 10692.2 1 1.81786 0.201983
16 0 0 0 0.430683 10688.3 1 1.81787 0.201984
17 0 0 0 0.426684 10684.2 1 1.81788 0.201985
18 0 0 0 0.422515 10679.9 1 1.81788 0.201986
19 0 0 0 0.418203 10675.5 1 1.81789 0.201987
20 0 0 0 0.413777 10670.9 1 1.8179 0.201988
21 0 0 0 0.409265 10666.3 1 1.81791 0.20199
22 0 0 0 0.404698 10661.6 1 1.81793 0.201991
23 0 0 0 0.400104 10656.9 1 1.81794 0.201992
24 0 0 0 0.395514 10652.2 1 1.81795 0.201994
25 0 0 0 0.390954 10647.6 1 1.81796 0.201995
26 0 0 0 0.386452 10642.9 1 1.81798 0.201997
27 0 0 0 0.382031 10638.4 1 1.81799 0.201998
28 0 0 0 0.377716 10634 1 1.818 0.202
29 0 0 0 0.373526 10629.7 1 1.81802 0.202001
30 0 0 0 0.36948 10625.6 1 1.81803 0.202003
31 0 0 0 0.365593 10621.6 1 1.81804 0.202005
32 0 0 0 0.36188 10617.8 1 1.81806 0.202006
33 0 0 0 0.358351 10614.2 1 1.81807 0.202008
34 0 0 0 0.355013 10610.7 1 1.81808 0.202009
35 0 0 0 0.351874 10607.5 1 1.8181 0.202011
36 0 0 0 0.348936 10604.5 1 1.81811 0.202012
37 0 0 0 0.346201 10601.7 1 1.81812 0.202014
38 0 0 0 0.343667 10599.1 1 1.81814 0.202015
39 0 0 0 0.341331 10596.7 1 1.81815 0.202017
40 0 0 0 0.339189 10594.5 1 1.81816 0.202018
41 0 0 0 0.337233 10592.5 1 1.81817 0.20202
42 0 0 0 0.335456 10590.7 1 1.81819 0.202021
43 0 0 0 0.333847 10589 1 1.8182 0.202023
44 0 0 0 0.332397 10587.6 1 1.81821 0.202024
45 0 0 0 0.331092 10586.2 1 1.81822 0.202025
46 0 0 0 0.329921 10585 1 1.81823 0.202026
47 0 0 0 0.32887 10583.9 1 1.81824 0.202028
48 0 0 0 0.327926 10583 1 1.81825 0.202029
49 0 0 0 0.327075 10582.1 1 1.81826 0.20203
50 0 0 0 0.326303 10581.3 1 1.81827 0.202031
51 0 0 0 0.325597 10580.6 1 1.81828 0.202032
52 0 0 0 0.324943 10579.9 1 1.81829 0.202033
53 0 0 0 0.324329 10579.3 1 1.8183 0.202034
54 0 0 0 0.323742 10578.7 1 1.81831 0.202035
55 0 0 0 0.323171 10578.1 1 1.81832 0.202036
56 0 0 0 0.322606 10577.5 1 1.81832 0.202037
57 0 0 0 0.322038 10576.9 1 1.81833 0.202038
58 0 0 0 0.321458 10576.3 1 1.81834 0.202038
59 0 0 0 0.320861 10575.7 1 1.81834 0.202039
60 0 0 0 0.320239 10575.1 1 1.81835 0.20204
61 0 0 0 0.31959 10574.4 1 1.81836 0.202041
62 0 0 0 0.318911 10573.7 1 1.81836 0.202041
63 0 0 0 0.3182 10573 1 1.81837 0.202042
64 0 0 0 0.317458 10572.2 1 1.81837 0.202042
65 0 0 0 0.316686 10571.5 1 1.81838 0.202043
66 0 0 0 0.315887 10570.6 1 1.81838 0.202043
67 0 0 0 0.315065 10569.8 1 1.81838 0.202044
68 0 0 0 0.314225 10568.9 1 1.81839 0.202044
69 0 0 0 0.313375 10568.1 1 1.81839 0.202045
70 0 0 0 0.31252 10567.2 1 1.81839 0.202045
71 0 0 0 0.311671 10566.3 1 1.81839 0.202045
72 0 0 0 0.310836 10565.5 1 1.8184 0.202045
73 0 0 0 0.310025 10564.6 1 1.8184 0.202045
74 0 0 0 0.309247 10563.8 1 1.8184 0.202045
75 0 0 0 0.308514 10563.1 1 1.8184 0.202045
76 0 0 0 0.307836 10562.4 1 1.8184 0.202045
77 0 0 0 0.307224 10561.8 1 1.8184 0.202045
78 0 0 0 0.306688 10561.2 1 1.8184 0.202045
79 0 0 0 0.30624 10560.8 1 1.8184 0.202045
80 0 0 0 0.305888 10560.4 1 1.81839 0.202045
81 0 0 0 0.305642 10560.1 1 1.81839 0.202044
82 0 0 0 0.30551 10560 1 1.81839 0.202044
83 0 0 0 0.305502 10560 1 1.81838 0.202044
84 0 0 0 0.305622 10560.1 1 1.81838 0.202043
85 0 0 0 0.305878 10560.4 1 1.81838 0.202043
86 0 0 0 0.306274 10560.8 1 1.81837 0.202042
87 0 0 0 0.306815 10561.3 1 1.81837 0.202042
88 0 0 0 0.307502 10562 1 1.81836 0.202041
89 0 0 0 0.308337 10562.9 1 1.81835 0.20204
90 0 0 0 0.309321 10563.9 1 1.81835 0.202039
91 0 0 0 0.310452 10565.1 1 1.81834 0.202039
92 0 0 0 0.311729 10566.4 1 1.81833 0.202038
93 0 0 0 0.313149 10567.8 1 1.81832 0.202037
94 0 0 0 0.314706 10569.4 1 1.81832 0.202036
95 0 0 0 0.316398 10571.2 1 1.81831 0.202035
96 0 0 0 0.318217 10573 1 1.8183 0.202034
97 0 0 0 0.320156 10575 1 1.81829 0.202033
98 0 0 0 0.32221 10577.1 1 1.81828 0.202031
99 0 0 0 0.32437 10579.3 1 1.81827 0.20203
100 0 0 0 0.326627 10581.6 1 1.81826 0.202029
101 0 0 0 0.328974 10584 1 1.81825 0.202028
102 0 0 0 0.331402 10586.5 1 1.81823 0.202026
103 0 0 0 0.333903 10589.1 1 1.81822 0.202025
104 0 0 0 0.336468 10591.7 1 1.81821 0.202024
105 0 0 0 0.339089 10594.4 1 1.8182 0.202022
106 0 0 0 0.34176 10597.2 1 1.81819 0.202021
107 0 0 0 0.344472 10599.9 1 1.81817 0.202019
108 0 0 0 0.347218 10602.7 1 1.81816 0.202018
109 0 0 0 0.349994 10605.6 1 1.81815 0.202016
110 0 0 0 0.352794 10608.5 1 1.81814 0.202015
111 0 0 0 0.355613 10611.3 1 1.81812 0.202013
112 0 0 0 0.358448 10614.3 1 1.81811 0.202012
113 0 0 0 0.361294 10617.2 1 1.8181 0.20201
114 0 0 0 0.364151 10620.1 1 1.81808 0.202009
115 0 0 0 0.367016 10623 1 1.81807 0.202007
116 0 0 0 0.369888 10626 1 1.81806 0.202006
117 0 0 0 0.372766 10628.9 1 1.81804 0.202004
118 0 0 0 0.375651 10631.9 1 1.81803 0.202003
119 0 0 0 0.378541 10634.8 1 1.81802 0.202001
120 0 0 0 0.381437 10637.8 1 1.818 0.202
121 0 0 0 0.384339 10640.8 1 1.81799 0.201998
122 0 0 0 0.387246 10643.8 1 1.81798 0.201997
123 0 0 0 0.390158 10646.7 1 1.81797 0.201995
124 0 0 0 0.393074 10649.7 1 1.81795 0.201994
125 0 0 0 0.395992 10652.7 1 1.81794 0.201993
126 0 0 0 0.39891 10655.7 1 1.81793 0.201991
127 0 0 0 0.401825 10658.7 1 1.81792 0.20199
128 0 0 0 0.404731 10661.7 1 1.81791 0.201989
129 0 0 0 0.407625 10664.6 1 1.8179 0.201988
130 0 0 0 0.4105 10667.6 1 1.81789 0.201987
131 0 0 0 0.413349 10670.5 1 1.81789 0.201986
132 0 0 0 0.416164 10673.4 1 1.81788 0.201985
133 0 0 0 0.418937 10676.2 1 1.81787 0.201984
134 0 0 0 0.421657 10679 1 1.81787 0.201984
135 0 0 0 0.424316 10681.7 1 1.81786 0.201983
136 0 0 0 0.426902 10684.4 1 1.81786 0.201983
137 0 0 0 0.429407 10687 1 1.81785 0.201982
138 0 0 0 0.431818 10689.4 1 1.81785 0.201982
139 0 0 0 0.434129 10691.8 1 1.81785 0.201982
140 0 0 0 0.436328 10694.1 1 1.81785 0.201982
141 0 0 0 0.438412 10696.2 1 1.81785 0.201982
142 0 0 0 0.440371 10698.2 1 1.81785 0.201982
143 0 0 0 0.442216 10700.1 1 1.81785 0.201983
144 0 0 0 0.44394 10701.9 1 1.81785 0.201983
145 0 0 0 0.445585 10703.5 1 1.81786 0.201983
146 0 0 0 0.447228 10705.2 1 1.81786 0.201984
147 0 0 0 0.449138 10707.2 1 1.81786 0.201985
148 0 0 0 0.44984 10707.9 1 1.81787 0.201985
149 0 0 0 0.443213 10701.1 1 1.81787 0.201985
0 1 0 0 0.456312 10714.5 1 1.81786 0.201985
1 1 2.26183e-06 8.94869e-06 0.456312 10714.5 1 1.81786 0.201986
2 1 2.09881e-06 1.1217e-05 0.45584 10714 1 1.81785 0.201985
3 1 -2.57679e-07 1.24713e-05 0.454282 10712.5 1 1.81785 0.201983
4 1 -4.13782e-06 1.34658e-05 0.453022 10711.2 1 1.81785 0.20198
5 1 -9.40712e-06 1.44214e-05 0.451754 10709.9 1 1.81784 0.201976
6 1 -1.59585e-05 1.52822e-05 0.450358 10708.4 1 1.81784 0.201972
7 1 -2.36388e-05 1.6017e-05 0.448763 10706.8 1 1.81784 0.201967
8 1 -3.22767e-05 1.66186e-05 0.446947 10704.9 1 1.81784 0.201962
9 1 -4.17019e-05 1.70907e-05 0.444882 10702.8 1 1.81784 0.201956
10 1 -5.17513e-05 1.744e-05 0.442562 10700.4 1 1.81784 0.20195
11 1 -6.22717e-05 1.76741e-05 0.439979 10697.8 1 1.81784 0.201944
12 1 -7.31203e-05 1.78011e-05 0.437137 10694.9 1 1.81785 0.201937
13 1 -8.41657e-05 1.78298e-05 0.434041 10691.7 1 1.81785 0.201931
14 1 -9.52877e-05 1.77686e-05 0.430703 10688.3 1 1.81786 0.201925
15 1 -0.000106377 1.76262e-05 0.427139 10684.6 1 1.81786 0.201919
16 1 -0.000117337 1.74109e-05 0.423368 10680.8 1 1.81787 0.201913
17 1 -0.000128078 1.71309e-05 0.419411 10676.7 1 1.81788 0.201908
18 1 -0.000138524 1.67941e-05 0.415293 10672.5 1 1.81788 0.201902
19 1 -0.000148608 1.64081e-05 0.411041 10668.1 1 1.81789 0.201897
20 1 -0.00015827 1.59802e-05 0.40668 10663.7 1 1.8179 0.201893
21 1 -0.000167462 1.55174e-05 0.402241 10659.1 1 1.81792 0.201888
22 1 -0.000176142 1.50263e-05 0.397751 10654.5 1 1.81793 0.201884
23 1 -0.000184277 1.45129e-05 0.393239 10649.9 1 1.81794 0.201881
24 1 -0.000191841 1.3983e-05 0.388732 10645.3 1 1.81795 0.201878
25 1 -0.000198814 1.34418e-05 0.384257 10640.7 1 1.81796 0.201875
26 1 -0.000205182 1.28942e-05 0.379839 10636.2 1 1.81798 0.201873
27 1 -0.000210939 1.23444e-05 0.375501 10631.7 1 1.81799 0.201871
28 1 -0.000216079 1.17962e-05 0.371266 10627.4 1 1.818 0.201869
29 1 -0.000220604 1.1253e-05 0.367152 10623.2 1 1.81802 0.201868
30 1 -0.000224519 1.07177e-05 0.363176 10619.1 1 1.81803 0.201867
31 1 -0.000227832 1.01926e-05 0.359354 10615.2 1 1.81804 0.201867
32 1 -0.000230553 9.67983e-06 0.355697 10611.4 1 1.81806 0.201867
33 1 -0.000232694 9.181e-06 0.352216 10607.9 1 1.81807 0.201867
34 1 -0.000234269 8.69738e-06 0.348917 10604.5 1 1.81808 0.201867
35 1 -0.000235295 8.22989e-06 0.345807 10601.3 1 1.8181 0.201868
36 1 -0.000235787 7.77917e-06 0.342887 10598.3 1 1.81811 0.20187
37 1 -0.000235763 7.3456e-06 0.34016 10595.5 1 1.81812 0.201871
38 1 -0.000235241 6.92931e-06 0.337623 10592.9 1 1.81814 0.201873
39 1 -0.000234237 6.53025e-06 0.335274 10590.5 1 1.81815 0.201875
40 1 -0.00023277 6.14819e-06 0.333108 10588.3 1 1.81816 0.201877
41 1 -0.000230857 5.78275e-06 0.331119 10586.2 1 1.81817 0.20188
42 1 -0.000228514 5.43344e-06 0.329298 10584.4 1 1.81819 0.201883
43 1 -0.000225759 5.0997e-06 0.327637 10582.7 1 1.8182 0.201886
44 1 -0.000222607 4.78089e-06 0.326126 10581.1 1 1.81821 0.201889
45 1 -0.000219074 4.47631e-06 0.324754 10579.7 1 1.81822 0.201892
46 1 -0.000215174 4.18526e-06 0.32351 10578.4 1 1.81823 0.201896
47 1 -0.000210923 3.90701e-06 0.322381 10577.3 1 1.81824 0.2019
48 1 -0.000206332 3.64085e-06 0.321355 10576.2 1 1.81825 0.201904
49 1 -0.000201416 3.38608e-06 0.32042 10575.3 1 1.81826 0.201908
50 1 -0.000196187 3.14202e-06 0.319564 10574.4 1 1.81827 0.201912
51 1 -0.000190657 2.90805e-06 0.318773 10573.6 1 1.81828 0.201917
52 1 -0.000184837 2.68357e-06 0.318036 10572.8 1 1.81829 0.201921
53 1 -0.000178739 2.46807e-06 0.317342 10572.1 1 1.8183 0.201926
54 1 -0.000172373 2.26105e-06 0.31668 10571.5 1 1.81831 0.201931
55 1 -0.00016575 2.06212e-06 0.31604 10570.8 1 1.81832 0.201936
56 1 -0.000158881 1.87092e-06 0.315412 10570.2 1 1.81832 0.201941
57 1 -0.000151774 1.68718e-06 0.314789 10569.5 1 1.81833 0.201946
58 1 -0.000144441 1.51068e-06 0.314163 10568.9 1 1.81834 0.201951
59 1 -0.000136891 1.34128e-06 0.313528 10568.2 1 1.81834 0.201956
60 1 -0.000129135 1.17891e-06 0.31288 10567.6 1 1.81835 0.201962
61 1 -0.000121182 1.02355e-06 0.312214 10566.9 1 1.81836 0.201967
62 1 -0.000113042 8.75256e-07 0.311529 10566.2 1 1.81836 0.201973
63 1 -0.000104727 7.34138e-07 0.310822 10565.4 1 1.81837 0.201978
64 1 -9.62459e-05 6.00365e-07 0.310095 10564.7 1 1.81837 0.201984
65 1 -8.76105e-05 4.74156e-07 0.309349 10563.9 1 1.81838 0.20199
66 1 -7.88316e-05 3.55778e-07 0.308585 10563.2 1 1.81838 0.201996
67 1 -6.99205e-05 2.4554e-07 0.307808 10562.4 1 1.81838 0.202001
68 1 -6.08891e-05 1.43788e-07 0.307022 10561.6 1 1.81839 0.202007
69 1 -5.17492e-05 5.08995e-08 0.306233 10560.7 1 1.81839 0.202013
70 1 -4.25134e-05 -3.27238e-08 0.305447 10559.9 1 1.81839 0.202019
71 1 -3.31943e-05 -1.0666e-07 0.304672 10559.1 1 1.81839 0.202025
72 1 -2.3805e-05 -1.70472e-07 0.303916 10558.4 1 1.8184 0.202031
73 1 -1.4359e-05 -2.23719e-07 0.303187 10557.6 1 1.8184 0.202037
74 1 -4.86992e-06 -2.65954e-07 0.302493 10556.9 1 1.8184 0.202042
75 1 4.64808e-06 -2.96738e-07 0.301845 10556.2 1 1.8184 0.202048
76 1 1.41806e-05 -3.15638e-07 0.301251 10555.6 1 1.8184 0.202054
77 1 2.3713e-05 -3.22239e-07 0.300721 10555.1 1 1.8184 0.20206
78 1 3.32304e-05 -3.16143e-07 0.300265 10554.6 1 1.8184 0.202065
79 1 4.27175e-05 -2.96976e-07 0.29989 10554.2 1 1.8184 0.202071
80 1 5.21589e-05 -2.64394e-07 0.299606 10554 1 1.81839 0.202076
81 1 6.15391e-05 -2.18082e-07 0.299422 10553.8 1 1.81839 0.202082
82 1 7.08423e-05 -1.57761e-07 0.299344 10553.7 1 1.81839 0.202087
83 1 8.00527e-05 -8.31884e-08 0.299381 10553.7 1 1.81838 0.202092
84 1 8.91542e-05 5.83842e-09 0.299537 10553.9 1 1.81838 0.202097
85 1 9.81309e-05 1.09483e-07 0.299818 10554.2 1 1.81838 0.202102
86 1 0.000106967 2.27868e-07 0.30023 10554.6 1 1.81837 0.202107
87 1 0.000115645 3.61073e-07 0.300774 10555.2 1 1.81837 0.202112
88 1 0.000124151 5.0914e-07 0.301455 10555.9 1 1.81836 0.202116
89 1 0.000132467 6.72067e-07 0.302274 10556.7 1 1.81835 0.20212
90 1 0.000140578 8.49817e-07 0.30323 10557.7 1 1.81835 0.202125
91 1 0.000148468 1.04232e-06 0.304324 10558.8 1 1.81834 0.202129
92 1 0.000156121 1.24945e-06 0.305555 10560.1 1 1.81833 0.202132
93 1 0.000163521 1.47109e-06 0.306919 10561.4 1 1.81832 0.202136
94 1 0.000170653 1.70705e-06 0.308414 10563 1 1.81832 0.202139
95 1 0.000177501 1.95715e-06 0.310036 10564.6 1 1.81831 0.202142
96 1 0.000184051 2.22116e-06 0.31178 10566.4 1 1.8183 0.202145
97 1 0.000190286 2.49886e-06 0.31364 10568.3 1 1.81829 0.202148
98 1 0.000196192 2.78998e-06 0.315611 10570.4 1 1.81828 0.20215
99 1 0.000201754 3.09427e-06 0.317686 10572.5 1 1.81827 0.202152
100 1 0.000206958 3.41145e-06 0.319859 10574.7 1 1.81826 0.202154
101 1 0.000211789 3.74124e-06 0.322122 10577 1 1.81825 0.202156
102 1 0.000216232 4.08335e-06 0.324469 10579.4 1 1.81823 0.202157
103 1 0.000220273 4.43749e-06 0.326891 10581.9 1 1.81822 0.202159
104 1 0.000223899 4.80334e-06 0.329383 10584.5 1 1.81821 0.202159
105 1 0.000227096 5.18061e-06 0.331937 10587.1 1 1.8182 0.20216
106 1 0.00022985 5.56896e-06 0.334547 10589.8 1 1.81819 0.20216
107 1 0.000232149 5.96807e-06 0.337207 10592.5 1 1.81817 0.20216
108 1 0.000233978 6.37758e-06 0.33991 10595.3 1 1.81816 0.20216
109 1 0.000235326 6.79709e-06 0.342652 10598.1 1 1.81815 0.202159
110 1 0.000236179 7.22619e-06 0.345428 10600.9 1 1.81814 0.202158
111 1 0.000236528 7.6644e-06 0.348234 10603.8 1 1.81812 0.202157
112 1 0.000236359 8.1112e-06 0.351065 10606.7 1 1.81811 0.202155
113 1 0.000235664 8.56596e-06 0.35392 10609.6 1 1.8181 0.202153
114 1 0.000234432 9.02798e-06 0.356796 10612.6 1 1.81808 0.202151
115 1 0.000232654 9.49646e-06 0.35969 10615.5 1 1.81807 0.202148
116 1 0.000230323 9.97043e-06 0.3626 10618.5 1 1.81806 0.202145
117 1 0.000227433 1.04488e-05 0.365527 10621.5 1 1.81804 0.202142
118 1 0.000223979 1.09303e-05 0.368467 10624.5 1 1.81803 0.202138
119 1 0.000219958 1.14135e-05 0.371421 10627.5 1 1.81802 0.202134
120 1 0.00021537 1.18966e-05 0.374388 10630.6 1 1.818 0.20213
121 1 0.000210216 1.23778e-05 0.377366 10633.6 1 1.81799 0.202126
122 1 0.000204502 1.28549e-05 0.380353 10636.7 1 1.81798 0.202121
123 1 0.000198234 1.33253e-05 0.383348 10639.8 1 1.81797 0.202115
124 1 0.000191424 1.37863e-05 0.386349 10642.8 1 1.81795 0.20211
125 1 0.000184087 1.42348e-05 0.389352 10645.9 1 1.81794 0.202104
126 1 0.000176243 1.46674e-05 0.392353 10649 1 1.81793 0.202098
127 1 0.000167916 1.50802e-05 0.395349 10652.1 1 1.81792 0.202092
128 1 0.000159134 1.54692e-05 0.398333 10655.1 1 1.81791 0.202085
129 1 0.000149935 1.58298e-05 0.401299 10658.2 1 1.8179 0.202079
130 1 0.000140357 1.61572e-05 0.40424 10661.2 1 1.81789 0.202072
131 1 0.000130451 1.64461e-05 0.407148 10664.2 1 1.81789 0.202065
132 1 0.000120271 1.66909e-05 0.410014 10667.1 1 1.81788 0.202058
133 1 0.000109878 1.68857e-05 0.412829 10670 1 1.81787 0.202051
134 1 9.93456e-05 1.70239e-05 0.415581 10672.8 1 1.81787 0.202044
135 1 8.87512e-05 1.70991e-05 0.418262 10675.5 1 1.81786 0.202037
136 1 7.81835e-05 1.71039e-05 0.42086 10678.2 1 1.81786 0.20203
137 1 6.77404e-05 1.70312e-05 0.423365 10680.8 1 1.81785 0.202023
138 1 5.75295e-05 1.68732e-05 0.425767 10683.2 1 1.81785 0.202017
139 1 4.76682e-05 1.66221e-05 0.428057 10685.6 1 1.81785 0.202011
140 1 3.82845e-05 1.62705e-05 0.430226 10687.8 1 1.81785 0.202005
141 1 2.95155e-05 1.58113e-05 0.432269 10689.9 1 1.81785 0.202
142 1 2.15073e-05 1.52383e-05 0.43418 10691.9 1 1.81785 0.201995
143 1 1.44118e-05 1.45481e-05 0.435966 10693.7 1 1.81785 0.201991
144 1 8.38149e-06 1.37479e-05 0.437625 10695.4 1 1.81785 0.201988
145 1 3.55014e-06 1.28679e-05 0.439199 10697 1 1.81786 0.201986
146 1 6.43415e-09 1.19617e-05 0.440765 10698.6 1 1.81786 0.201984
147 1 -2.1323e-06 1.081e-05 0.442595 10700.5 1 1.81786 0.201983
148 1 -2.21981e-06 8.66696e-06 0.443213 10701.1 1 1.81787 0.201984
149 1 0 0 0.443213 10701.1 1 1.81787 0.201985
0 2 0 0 0.449153 10707.2 1 1.81791 0.20199
1 2 4.02788e-07 7.58232e-06 0.449153 10707.2 1 1.81791 0.20199
2 2 -3.71798e-07 1.29725e-05 0.44834 10706.4 1 1.81791 0.20199
3 2 -4.33708e-06 1.68076e-05 0.446916 10704.9 1 1.81791 0.201986
4 2 -1.14897e-05 2.00533e-05 0.44593 10703.9 1 1.8179 0.201981
5 2 -2.14112e-05 2.29828e-05 0.444652 10702.6 1 1.8179 0.201975
6 2 -3.37234e-05 2.55816e-05 0.443262 10701.2 1 1.8179 0.201967
7 2 -4.8115e-05 2.78173e-05 0.441632 10699.5 1 1.8179 0.201958
8 2 -6.42842e-05 2.96798e-05 0.43979 10697.6 1 1.8179 0.201948
9 2 -8.19303e-05 3.1177e-05 0.437695 10695.5 1 1.8179 0.201937
10 2 -0.00010076 3.23257e-05 0.435352 10693.1 1 1.8179 0.201926
11 2 -0.000120494 3.31473e-05 0.432751 10690.4 1 1.8179 0.201914
12 2 -0.000140871 3.36653e-05 0.429899 10687.5 1 1.8179 0.201902
13 2 -0.00016165 3.39037e-05 0.426801 10684.3 1 1.81791 0.201889
14 2 -0.000182607 3.3887e-05 0.42347 10680.9 1 1.81791 0.201877
15 2 -0.000203539 3.36391e-05 0.419922 10677.2 1 1.81792 0.201865
16 2 -0.000224262 3.31837e-05 0.416175 10673.4 1 1.81793 0.201854
17 2 -0.000244611 3.25435e-05 0.412251 10669.4 1 1.81793 0.201842
18 2 -0.00026444 3.17407e-05 0.408174 10665.2 1 1.81794 0.201831
19 2 -0.000283618 3.07966e-05 0.403969 10660.9 1 1.81795 0.20182
20 2 -0.000302035 2.97314e-05 0.399663 10656.5 1 1.81796 0.20181
21 2 -0.000319594 2.85643e-05 0.395284 10652 1 1.81797 0.201801
22 2 -0.000336215 2.73134e-05 0.39086 10647.5 1 1.81798 0.201792
23 2 -0.000351831 2.59958e-05 0.386416 10642.9 1 1.81799 0.201784
24 2 -0.00036639 2.4627e-05 0.381981 10638.4 1 1.818 0.201777
25 2 -0.00037985 2.32214e-05 0.377579 10633.9 1 1.81801 0.20177
26 2 -0.000392183 2.17922e-05 0.373235 10629.4 1 1.81802 0.201764
27 2 -0.000403369 2.0351e-05 0.36897 10625 1 1.81804 0.201759
28 2 -0.000413399 1.89083e-05 0.364805 10620.8 1 1.81805 0.201754
29 2 -0.00042227 1.74732e-05 0.360758 10616.6 1 1.81806 0.20175
30 2 -0.000429987 1.60536e-05 0.356844 10612.6 1 1.81808 0.201747
31 2 -0.000436561 1.46562e-05 0.353079 10608.7 1 1.81809 0.201745
32 2 -0.000442009 1.32864e-05 0.349472 10605.1 1 1.8181 0.201743
33 2 -0.000446352 1.1949e-05 0.346033 10601.5 1 1.81811 0.201742
34 2 -0.000449612 1.06473e-05 0.342769 10598.2 1 1.81813 0.201742
35 2 -0.000451817 9.38406e-06 0.339684 10595 1 1.81814 0.201742
36 2 -0.000452995 8.1612e-06 0.336781 10592 1 1.81815 0.201743
37 2 -0.000453177 6.97991e-06 0.33406 10589.3 1 1.81816 0.201744
38 2 -0.000452394 5.84078e-06 0.33152 10586.7 1 1.81818 0.201746
39 2 -0.000450676 4.7439e-06 0.329158 10584.2 1 1.81819 0.201748
40 2 -0.000448058 3.68893e-06 0.326969 10582 1 1.8182 0.201751
41 2 -0.000444568 2.67516e-06 0.324948 10579.9 1 1.81821 0.201755
42 2 -0.00044024 1.70161e-06 0.323086 10578 1 1.81822 0.201759
43 2 -0.000435103 7.67072e-07 0.321376 10576.3 1 1.81824 0.201763
44 2 -0.000429187 -1.29798e-07 0.319808 10574.7 1 1.81825 0.201768
45 2 -0.000422522 -9.90465e-07 0.318373 10573.2 1 1.81826 0.201774
46 2 -0.000415135 -1.81645e-06 0.317059 10571.8 1 1.81827 0.201779
47 2 -0.000407053 -2.60927e-06 0.315857 10570.6 1 1.81828 0.201786
48 2 -0.000398302 -3.37044e-06 0.314755 10569.5 1 1.81829 0.201792
49 2 -0.000388907 -4.10142e-06 0.313741 10568.4 1 1.8183 0.201799
50 2 -0.000378893 -4.80359e-06 0.312804 10567.5 1 1.81831 0.201806
51 2 -0.000368284 -5.47821e-06 0.311934 10566.6 1 1.81832 0.201813
52 2 -0.000357101 -6.12645e-06 0.31112 10565.8 1 1.81833 0.201821
53 2 -0.000345367 -6.74934e-06 0.310351 10565 1 1.81833 0.201829
54 2 -0.000333104 -7.34776e-06 0.309618 10564.2 1 1.81834 0.201838
55 2 -0.000320332 -7.92247e-06 0.308913 10563.5 1 1.81835 0.201846
56 2 -0.000307072 -8.47406e-06 0.308226 10562.8 1 1.81836 0.201855
57 2 -0.000293345 -9.00296e-06 0.307551 10562.1 1 1.81836 0.201865
58 2 -0.000279172 -9.50946e-06 0.306881 10561.4 1 1.81837 0.201874
59 2 -0.000264571 -9.99371e-06 0.306212 10560.7 1 1.81838 0.201884
60 2 -0.000249565 -1.04557e-05 0.305537 10560 1 1.81838 0.201893
61 2 -0.000234173 -1.08953e-05 0.304856 10559.3 1 1.81839 0.201903
62 2 -0.000218417 -1.13123e-05 0.304165 10558.6 1 1.8184 0.201914
63 2 -0.000202317 -1.17063e-05 0.303462 10557.9 1 1.8184 0.201924
64 2 -0.000185894 -1.20767e-05 0.30275 10557.2 1 1.81841 0.201934
65 2 -0.000169172 -1.2423e-05 0.302027 10556.4 1 1.81841 0.201945
66 2 -0.000152171 -1.27446e-05 0.301297 10555.7 1 1.81841 0.201956
67 2 -0.000134916 -1.30406e-05 0.300563 10554.9 1 1.81842 0.201967
68 2 -0.000117429 -1.33103e-05 0.299827 10554.2 1 1.81842 0.201978
69 2 -9.97355e-05 -1.35528e-05 0.299097 10553.4 1 1.81842 0.201989
70 2 -8.18589e-05 -1.37673e-05 0.298376 10552.7 1 1.81842 0.202
71 2 -6.38251e-05 -1.39528e-05 0.297671 10552 1 1.81843 0.202011
72 2 -4.56599e-05 -1.41085e-05 0.296989 10551.3 1 1.81843 0.202022
73 2 -2.73897e-05 -1.42333e-05 0.296337 10550.6 1 1.81843 0.202033
74 2 -9.04176e-06 -1.43264e-05 0.295723 10550 1 1.81843 0.202044
75 2 9.35645e-06 -1.4387e-05 0.295155 10549.4 1 1.81843 0.202056
76 2 2.77768e-05 -1.44141e-05 0.294641 10548.9 1 1.81843 0.202067
77 2 4.61906e-05 -1.4407e-05 0.294188 10548.4 1 1.81843 0.202078
78 2 6.45688e-05 -1.43649e-05 0.293806 10548 1 1.81843 0.202089
79 2 8.2882e-05 -1.42873e-05 0.293502 10547.7 1 1.81843 0.2021
80 2 0.0001011 -1.41733e-05 0.293283 10547.5 1 1.81842 0.202111
81 2 0.000119194 -1.40226e-05 0.293156 10547.3 1 1.81842 0.202121
82 2 0.000137132 -1.38345e-05 0.293129 10547.3 1 1.81842 0.202132
83 2 0.000154884 -1.36089e-05 0.293208 10547.4 1 1.81842 0.202142
84 2 0.00017242 -1.33452e-05 0.293397 10547.6 1 1.81841 0.202152
85 2 0.000189708 -1.30433e-05 0.293703 10547.9 1 1.81841 0.202162
86 2 0.000206718 -1.27031e-05 0.294128 10548.3 1 1.8184 0.202172
87 2 0.000223419 -1.23244e-05 0.294677 10548.9 1 1.8184 0.202182
88 2 0.00023978 -1.19073e-05 0.295352 10549.6 1 1.81839 0.202191
89 2 0.00025577 -1.14519e-05 0.296154 10550.4 1 1.81839 0.2022
90 2 0.000271359 -1.09583e-05 0.297085 10551.4 1 1.81838 0.202208
91 2 0.000286517 -1.04266e-05 0.298144 10552.5 1 1.81837 0.202217
92 2 0.000301212 -9.85725e-06 0.29933 10553.7 1 1.81837 0.202225
93 2 0.000315416 -9.25046e-06 0.300642 10555 1 1.81836 0.202232
94 2 0.000329098 -8.6066e-06 0.302078 10556.5 1 1.81835 0.20224
95 2 0.000342229 -7.92608e-06 0.303634 10558.1 1 1.81834 0.202247
96 2 0.000354779 -7.20934e-06 0.305307 10559.8 1 1.81833 0.202253
97 2 0.00036672 -6.45682e-06 0.307092 10561.6 1 1.81832 0.202259
98 2 0.000378022 -5.66902e-06 0.308985 10563.6 1 1.81831 0.202265
99 2 0.000388658 -4.84644e-06 0.31098 10565.6 1 1.8183 0.20227
100 2 0.000398599 -3.9896e-06 0.313073 10567.8 1 1.81829 0.202275
101 2 0.000407818 -3.09903e-06 0.315256 10570 1 1.81828 0.20228
102 2 0.000416286 -2.17528e-06 0.317526 10572.3 1 1.81827 0.202283
103 2 0.000423978 -1.21894e-06 0.319875 10574.7 1 1.81826 0.202287
104 2 0.000430866 -2.30604e-07 0.322297 10577.2 1 1.81825 0.20229
105 2 0.000436925 7.89084e-07 0.324788 10579.8 1 1.81824 0.202292
106 2 0.000442128 1.83943e-06 0.327342 10582.4 1 1.81823 0.202294
107 2 0.00044645 2.91967e-06 0.329953 10585.1 1 1.81821 0.202295
108 2 0.000449866 4.02896e-06 0.332616 10587.8 1 1.8182 0.202295
109 2 0.000452354 5.16633e-06 0.335327 10590.6 1 1.81819 0.202295
110 2 0.000453889 6.33068e-06 0.338081 10593.4 1 1.81818 0.202295
111 2 0.00045445 7.52071e-06 0.340876 10596.2 1 1.81816 0.202294
112 2 0.000454016 8.73492e-06 0.343707 10599.1 1 1.81815 0.202292
113 2 0.000452568 9.97156e-06 0.346571 10602.1 1 1.81814 0.202289
114 2 0.000450088 1.12286e-05 0.349466 10605 1 1.81813 0.202286
115 2 0.000446561 1.25035e-05 0.35239 10608 1 1.81811 0.202283
116 2 0.000441973 1.37934e-05 0.35534 10611.1 1 1.8181 0.202278
117 2 0.000436315 1.50952e-05 0.358315 10614.1 1 1.81809 0.202273
118 2 0.000429578 1.64049e-05 0.361313 10617.2 1 1.81808 0.202268
119 2 0.000421759 1.7718e-05 0.364332 10620.3 1 1.81806 0.202262
120 2 0.000412859 1.90296e-05 0.367369 10623.4 1 1.81805 0.202255
121 2 0.000402883 2.03337e-05 0.370423 10626.5 1 1.81804 0.202247
122 2 0.000391842 2.16239e-05 0.373491 10629.7 1 1.81803 0.202239
123 2 0.000379754 2.28927e-05 0.37657 10632.8 1 1.81802 0.20223
124 2 0.000366642 2.4132e-05 0.379657 10636 1 1.81801 0.202221
125 2 0.000352537 2.53324e-05 0.382746 10639.1 1 1.81799 0.202211
126 2 0.00033748 2.6484e-05 0.385833 10642.3 1 1.81798 0.202201
127 2 0.000321519 2.75756e-05 0.388912 10645.5 1 1.81797 0.20219
128 2 0.000304713 2.85951e-05 0.391976 10648.6 1 1.81796 0.202179
129 2 0.000287131 2.95294e-05 0.395017 10651.7 1 1.81796 0.202167
130 2 0.000268855 3.03643e-05 0.398027 10654.8 1 1.81795 0.202155
131 2 0.000249977 3.10848e-05 0.400998 10657.9 1 1.81794 0.202142
132 2 0.000230606 3.16745e-05 0.403918 10660.8 1 1.81793 0.20213
133 2 0.000210861 3.21164e-05 0.406778 10663.8 1 1.81793 0.202117
134 2 0.000190878 3.2392e-05 0.409566 10666.6 1 1.81792 0.202104
135 2 0.000170808 3.24822e-05 0.412273 10669.4 1 1.81792 0.202092
136 2 0.000150818 3.23669e-05 0.414886 10672.1 1 1.81791 0.202079
137 2 0.000131092 3.20251e-05 0.417395 10674.7 1 1.81791 0.202067
138 2 0.000111831 3.14353e-05 0.419789 10677.1 1 1.81791 0.202055
139 2 9.3253e-05 3.05759e-05 0.42206 10679.4 1 1.81791 0.202044
140 2 7.55941e-05 2.94257e-05 0.424196 10681.6 1 1.8179 0.202033
141 2 5.91045e-05 2.79654e-05 0.426198 10683.7 1 1.8179 0.202023
142 2 4.40483e-05 2.61798e-05 0.428046 10685.6 1 1.81791 0.202014
143 2 3.06953e-05 2.40627e-05 0.429764 10687.3 1 1.81791 0.202007
144 2 1.93152e-05 2.16249e-05 0.431304 10688.9 1 1.81791 0.202
145 2 1.01864e-05 1.88983e-05 0.432764 10690.4 1 1.81791 0.201995
146 2 3.65305e-06 1.5895e-05 0.433936 10691.6 1 1.81791 0.201992
147 2 1.02441e-07 1.23387e-05 0.435507 10693.2 1 1.81792 0.20199
148 2 -4.7325e-07 7.26528e-06 0.43638 10694.1 1 1.81792 0.201991
149 2 0 0 0.43638 10694.1 1 1.81792 0.201991
0 3 0 0 0.44122 10699.1 1 1.81797 0.201996
1 3 -9.98263e-07 8.03007e-06 0.44122 10699.1 1 1.81797 0.201995
2 3 -3.91754e-06 1.63783e-05 0.440591 10698.4 1 1.81796 0.201993
3 3 -1.0465e-05 2.37736e-05 0.439804 10697.6 1 1.81796 0.201989
4 3 -2.08841e-05 3.04589e-05 0.439073 10696.9 1 1.81796 0.201982
5 3 -3.49396e-05 3.64286e-05 0.437753 10695.5 1 1.81796 0.201972
6 3 -5.22566e-05 4.16938e-05 0.436392 10694.1 1 1.81796 0.201961
7 3 -7.24274e-05 4.62318e-05 0.434734 10692.4 1 1.81796 0.201949
8 3 -9.5041e-05 5.00393e-05 0.432878 10690.5 1 1.81795 0.201935
9 3 -0.000119696 5.31313e-05 0.430759 10688.3 1 1.81796 0.20192
10 3 -0.000146003 5.55385e-05 0.428398 10685.9 1 1.81796 0.201904
11 3 -0.000173591 5.72999e-05 0.42578 10683.2 1 1.81796 0.201887
12 3 -0.000202106 5.84592e-05 0.422916 10680.3 1 1.81796 0.20187
13 3 -0.000231221 5.90624e-05 0.419811 10677.1 1 1.81796 0.201853
14 3 -0.000260629 5.9156e-05 0.416479 10673.7 1 1.81797 0.201835
15 3 -0.00029005 5.87866e-05 0.412935 10670.1 1 1.81797 0.201818
16 3 -0.000319229 5.79998e-05 0.409199 10666.3 1 1.81798 0.201801
17 3 -0.000347936 5.68403e-05 0.405292 10662.3 1 1.81799 0.201785
18 3 -0.000375964 5.53515e-05 0.401238 10658.1 1 1.81799 0.201768
19 3 -0.000403131 5.35751e-05 0.397063 10653.8 1 1.818 0.201753
20 3 -0.000429276 5.15508e-05 0.392792 10649.4 1 1.81801 0.201738
21 3 -0.000454263 4.93166e-05 0.388454 10645 1 1.81802 0.201724
22 3 -0.000477973 4.69082e-05 0.384073 10640.5 1 1.81803 0.201711
23 3 -0.000500309 4.43591e-05 0.379679 10636 1 1.81804 0.201699
24 3 -0.000521191 4.17001e-05 0.375295 10631.5 1 1.81805 0.201688
25 3 -0.000540558 3.89599e-05 0.370946 10627.1 1 1.81806 0.201677
26 3 -0.000558362 3.61642e-05 0.366655 10622.7 1 1.81807 0.201668
27 3 -0.000574571 3.33366e-05 0.362444 10618.3 1 1.81808 0.20166
28 3 -0.000589165 3.04977e-05 0.358332 10614.1 1 1.8181 0.201652
29 3 -0.000602135 2.76659e-05 0.354336 10610 1 1.81811 0.201646
30 3 -0.000613483 2.48569e-05 0.35047 10606.1 1 1.81812 0.201641
31 3 -0.000623219 2.20843e-05 0.346748 10602.3 1 1.81813 0.201636
32 3 -0.00063136 1.93595e-05 0.34318 10598.6 1 1.81814 0.201633
33 3 -0.00063793 1.66917e-05 0.339773 10595.1 1 1.81816 0.201631
34 3 -0.000642959 1.40884e-05 0.336535 10591.8 1 1.81817 0.201629
35 3 -0.00064648 1.15552e-05 0.333469 10588.7 1 1.81818 0.201628
36 3 -0.000648528 9.09638e-06 0.330577 10585.7 1 1.81819 0.201629
37 3 -0.000649144 6.71472e-06 0.327859 10582.9 1 1.81821 0.20163
38 3 -0.000648367 4.41191e-06 0.325314 10580.3 1 1.81822 0.201632
39 3 -0.000646239 2.18857e-06 0.322938 10577.9 1 1.81823 0.201634
40 3 -0.000642804 4.45275e-08 0.320727 10575.6 1 1.81824 0.201638
41 3 -0.000638102 -2.02113e-06 0.318675 10573.5 1 1.81825 0.201642
42 3 -0.000632177 -4.00985e-06 0.316776 10571.5 1 1.81826 0.201647
43 3 -0.000625071 -5.92351e-06 0.315021 10569.8 1 1.81827 0.201653
44 3 -0.000616824 -7.76431e-06 0.313402 10568.1 1 1.81828 0.201659
45 3 -0.000607477 -9.53465e-06 0.31191 10566.6 1 1.81829 0.201666
46 3 -0.000597069 -1.1237e-05 0.310535 10565.2 1 1.8183 0.201674
47 3 -0.000585638 -1.28741e-05 0.309267 10563.9 1 1.81831 0.201682
48 3 -0.000573221 -1.44482e-05 0.308096 10562.7 1 1.81832 0.20169
49 3 -0.000559855 -1.5962e-05 0.307012 10561.5 1 1.81833 0.2017
50 3 -0.000545574 -1.74176e-05 0.306004 10560.5 1 1.81834 0.201709
51 3 -0.000530414 -1.88173e-05 0.305064 10559.5 1 1.81835 0.20172
52 3 -0.000514406 -2.01628e-05 0.30418 10558.6 1 1.81836 0.20173
53 3 -0.000497583 -2.14559e-05 0.303345 10557.8 1 1.81837 0.201742
54 3 -0.000479979 -2.26981e-05 0.302549 10557 1 1.81838 0.201753
55 3 -0.000461624 -2.38904e-05 0.301785 10556.2 1 1.81838 0.201765