Title="LBM for phase change with fin"
dt=1 dx=1
VARIABLES="X","Y","U","V","T","H","fl","pa","Test"
ZONE T="BOX",I=150,J=150,F=POINT
0 0 0 0 0.477901 10736.7 1 1.74687 0.194097
1 0 0 0 0.485036 10744 1 1.74687 0.194097
2 0 0 0 0.485269 10744.2 1 1.74687 0.194096
3 0 0 0 0.484652 10743.6 1 1.74686 0.194095
4 0 0 0 0.484378 10743.3 1 1.74686 0.194095
5 0 0 0 0.484066 10743 1 1.74685 0.194094
6 0 0 0 0.483503 10742.4 1 1.74685 0.194094
7 0 0 0 0.482557 10741.4 1 1.74685 0.194093
8 0 0 0 0.481151 10740 1 1.74685 0.194093
9 0 0 0 0.479217 10738 1 1.74685 0.194093
10 0 0 0 0.476713 10735.4 1 1.74685 0.194093
11 0 0 0 0.47361 10732.3 1 1.74686 0.194094
12 0 0 0 0.469897 10728.5 1 1.74686 0.194094
13 0 0 0 0.465576 10724 1 1.74687 0.194095
14 0 0 0 0.460663 10719 1 1.74687 0.194096
15 0 0 0 0.455185 10713.4 1 1.74688 0.194097
16 0 0 0 0.449181 10707.2 1 1.74689 0.194098
17 0 0 0 0.442699 10700.6 1 1.7469 0.194099
18 0 0 0 0.435798 10693.5 1 1.74691 0.1941
19 0 0 0 0.428542 10686.1 1 1.74692 0.194101
20 0 0 0 0.421 10678.3 1 1.74693 0.194103
21 0 0 0 0.413247 10670.4 1 1.74694 0.194104
22 0 0 0 0.405361 10662.3 1 1.74696 0.194106
23 0 0 0 0.397419 10654.2 1 1.74697 0.194107
24 0 0 0 0.3895 10646.1 1 1.74699 0.194109
25 0 0 0 0.381679 10638.1 1 1.747 0.194111
26 0 0 0 0.374031 10630.2 1 1.74701 0.194112
27 0 0 0 0.366626 10622.6 1 1.74703 0.194114
28 0 0 0 0.359528 10615.4 1 1.74704 0.194116
29 0 0 0 0.352797 10608.5 1 1.74706 0.194117
30 0 0 0 0.346487 10602 1 1.74707 0.194119
31 0 0 0 0.340644 10596 1 1.74709 0.194121
32 0 0 0 0.335306 10590.5 1 1.7471 0.194122
33 0 0 0 0.330505 10585.6 1 1.74711 0.194124
34 0 0 0 0.326264 10581.3 1 1.74713 0.194125
35 0 0 0 0.322599 10577.5 1 1.74714 0.194127
36 0 0 0 0.319517 10574.4 1 1.74715 0.194128
37 0 0 0 0.317018 10571.8 1 1.74717 0.19413
38 0 0 0 0.315094 10569.8 1 1.74718 0.194131
39 0 0 0 0.313729 10568.4 1 1.74719 0.194132
40 0 0 0 0.312901 10567.6 1 1.7472 0.194134
41 0 0 0 0.312581 10567.3 1 1.74721 0.194135
42 0 0 0 0.312733 10567.4 1 1.74722 0.194136
43 0 0 0 0.313317 10568 1 1.74723 0.194137
44 0 0 0 0.314289 10569 1 1.74724 0.194138
45 0 0 0 0.315597 10570.3 1 1.74725 0.194139
46 0 0 0 0.31719 10572 1 1.74726 0.19414
47 0 0 0 0.319012 10573.8 1 1.74727 0.194141
48 0 0 0 0.321006 10575.9 1 1.74727 0.194142
49 0 0 0 0.323114 10578 1 1.74728 0.194143
50 0 0 0 0.325277 10580.3 1 1.74729 0.194144
51 0 0 0 0.327438 10582.5 1 1.7473 0.194145
52 0 0 0 0.32954 10584.6 1 1.7473 0.194146
53 0 0 0 0.331531 10586.7 1 1.74731 0.194147
54 0 0 0 0.333359 10588.5 1 1.74732 0.194147
55 0 0 0 0.334978 10590.2 1 1.74733 0.194148
56 0 0 0 0.336344 10591.6 1 1.74733 0.194149
57 0 0 0 0.33742 10592.7 1 1.74734 0.19415
58 0 0 0 0.338175 10593.5 1 1.74734 0.19415
59 0 0 0 0.338582 10593.9 1 1.74735 0.194151
60 0 0 0 0.33862 10593.9 1 1.74736 0.194152
61 0 0 0 0.338278 10593.6 1 1.74736 0.194152
62 0 0 0 0.337547 10592.8 1 1.74737 0.194153
63 0 0 0 0.336428 10591.7 1 1.74737 0.194154
64 0 0 0 0.334927 10590.1 1 1.74738 0.194154
65 0 0 0 0.333057 10588.2 1 1.74738 0.194155
66 0 0 0 0.330838 10586 1 1.74739 0.194155
67 0 0 0 0.328295 10583.4 1 1.74739 0.194156
68 0 0 0 0.32546 10580.4 1 1.7474 0.194156
69 0 0 0 0.322366 10577.3 1 1.7474 0.194157
70 0 0 0 0.319057 10573.9 1 1.74741 0.194157
71 0 0 0 0.315575 10570.3 1 1.74741 0.194158
72 0 0 0 0.311969 10566.6 1 1.74741 0.194158
73 0 0 0 0.308288 10562.9 1 1.74742 0.194159
74 0 0 0 0.304586 10559.1 1 1.74742 0.194159
75 0 0 0 0.300915 10555.3 1 1.74742 0.194159
76 0 0 0 0.297328 10551.6 1 1.74742 0.194159
77 0 0 0 0.293879 10548.1 1 1.74742 0.194159
78 0 0 0 0.290621 10544.7 1 1.74742 0.194159
79 0 0 0 0.287601 10541.7 1 1.74742 0.194159
80 0 0 0 0.284869 10538.9 1 1.74742 0.194159
81 0 0 0 0.282469 10536.4 1 1.74742 0.194159
82 0 0 0 0.280439 10534.3 1 1.74742 0.194159
83 0 0 0 0.278817 10532.7 1 1.74742 0.194159
84 0 0 0 0.277632 10531.4 1 1.74742 0.194158
85 0 0 0 0.276911 10530.7 1 1.74741 0.194158
86 0 0 0 0.276673 10530.5 1 1.74741 0.194157
87 0 0 0 0.276932 10530.7 1 1.7474 0.194157
88 0 0 0 0.277695 10531.5 1 1.7474 0.194156
89 0 0 0 0.278965 10532.8 1 1.74739 0.194156
90 0 0 0 0.280735 10534.6 1 1.74738 0.194155
91 0 0 0 0.282995 10536.9 1 1.74738 0.194154
92 0 0 0 0.285728 10539.7 1 1.74737 0.194153
93 0 0 0 0.288911 10543 1 1.74736 0.194152
94 0 0 0 0.292515 10546.7 1 1.74735 0.194151
95 0 0 0 0.296508 10550.8 1 1.74734 0.19415
96 0 0 0 0.30085 10555.2 1 1.74733 0.194148
97 0 0 0 0.3055 10560 1 1.74732 0.194147
98 0 0 0 0.310412 10565 1 1.74731 0.194146
99 0 0 0 0.315536 10570.3 1 1.7473 0.194144
100 0 0 0 0.320824 10575.7 1 1.74728 0.194143
101 0 0 0 0.326221 10581.2 1 1.74727 0.194142
102 0 0 0 0.331675 10586.8 1 1.74726 0.19414
103 0 0 0 0.337133 10592.4 1 1.74725 0.194139
104 0 0 0 0.342543 10598 1 1.74723 0.194137
105 0 0 0 0.347853 10603.4 1 1.74722 0.194135
106 0 0 0 0.353016 10608.7 1 1.7472 0.194134
107 0 0 0 0.357984 10613.8 1 1.74719 0.194132
108 0 0 0 0.362717 10618.6 1 1.74718 0.194131
109 0 0 0 0.367177 10623.2 1 1.74716 0.194129
110 0 0 0 0.371329 10627.5 1 1.74715 0.194127
111 0 0 0 0.375148 10631.4 1 1.74714 0.194126
112 0 0 0 0.37861 10634.9 1 1.74712 0.194124
113 0 0 0 0.3817 10638.1 1 1.74711 0.194123
114 0 0 0 0.384409 10640.9 1 1.7471 0.194121
115 0 0 0 0.386733 10643.2 1 1.74708 0.19412
116 0 0 0 0.388675 10645.2 1 1.74707 0.194118
117 0 0 0 0.390245 10646.8 1 1.74706 0.194117
118 0 0 0 0.39146 10648.1 1 1.74705 0.194116
119 0 0 0 0.392342 10649 1 1.74704 0.194114
120 0 0 0 0.392918 10649.6 1 1.74702 0.194113
121 0 0 0 0.39322 10649.9 1 1.74701 0.194112
122 0 0 0 0.393287 10649.9 1 1.747 0.194111
123 0 0 0 0.393158 10649.8 1 1.74699 0.194109
124 0 0 0 0.392877 10649.5 1 1.74698 0.194108
125 0 0 0 0.39249 10649.1 1 1.74698 0.194107
126 0 0 0 0.392044 10648.7 1 1.74697 0.194106
127 0 0 0 0.391586 10648.2 1 1.74696 0.194106
128 0 0 0 0.391161 10647.8 1 1.74695 0.194105
129 0 0 0 0.390814 10647.4 1 1.74695 0.194104
130 0 0 0 0.390586 10647.2 1 1.74694 0.194103
131 0 0 0 0.390514 10647.1 1 1.74693 0.194103
132 0 0 0 0.390632 10647.2 1 1.74693 0.194102
133 0 0 0 0.390966 10647.6 1 1.74693 0.194102
134 0 0 0 0.391538 10648.2 1 1.74692 0.194101
135 0 0 0 0.392361 10649 1 1.74692 0.194101
136 0 0 0 0.393444 10650.1 1 1.74692 0.194101
137 0 0 0 0.394786 10651.5 1 1.74691 0.194101
138 0 0 0 0.396377 10653.1 1 1.74691 0.1941
139 0 0 0 0.398204 10655 1 1.74691 0.1941
140 0 0 0 0.400241 10657.1 1 1.74691 0.194101
141 0 0 0 0.402462 10659.4 1 1.74691 0.194101
142 0 0 0 0.404823 10661.8 1 1.74691 0.194101
143 0 0 0 0.407293 10664.3 1 1.74692 0.194101
144 0 0 0 0.409812 10666.9 1 1.74692 0.194101
145 0 0 0 0.412363 10669.5 1 1.74692 0.194102
146 0 0 0 0.41493 10672.1 1 1.74692 0.194102
147 0 0 0 0.417709 10675 1 1.74693 0.194103
148 0 0 0 0.419035 10676.3 1 1.74693 0.194103
149 0 0 0 0.412747 10669.9 1 1.74693 0.194103
0 1 0 0 0.477901 10736.7 1 1.74687 0.194097
1 1 2.32596e-06 9.41911e-06 0.477901 10736.7 1 1.74687 0.194098
2 1 2.01259e-06 1.19224e-05 0.477717 10736.5 1 1.74687 0.194097
3 1 -7.72407e-07 1.33833e-05 0.476698 10735.4 1 1.74686 0.194095
4 1 -5.32474e-06 1.4561e-05 0.47604 10734.7 1 1.74686 0.194092
5 1 -1.14787e-05 1.5675e-05 0.475371 10734.1 1 1.74685 0.194087
6 1 -1.90909e-05 1.6664e-05 0.474482 10733.2 1 1.74685 0.194083
7 1 -2.79697e-05 1.74948e-05 0.473248 10731.9 1 1.74685 0.194077
8 1 -3.79051e-05 1.81597e-05 0.471595 10730.2 1 1.74685 0.194071
9 1 -4.869e-05 1.86634e-05 0.469458 10728 1 1.74685 0.194065
10 1 -6.01265e-05 1.90132e-05 0.466801 10725.3 1 1.74685 0.194058
11 1 -7.20287e-05 1.92179e-05 0.463596 10722 1 1.74686 0.194052
12 1 -8.42235e-05 1.92874e-05 0.459835 10718.1 1 1.74686 0.194045
13 1 -9.65514e-05 1.9232e-05 0.455518 10713.7 1 1.74687 0.194039
14 1 -0.000108867 1.90626e-05 0.450663 10708.7 1 1.74687 0.194032
15 1 -0.00012104 1.87901e-05 0.445295 10703.2 1 1.74688 0.194026
16 1 -0.000132952 1.84259e-05 0.439453 10697.3 1 1.74689 0.19402
17 1 -0.000144501 1.79812e-05 0.433181 10690.8 1 1.7469 0.194015
18 1 -0.000155597 1.74671e-05 0.426534 10684 1 1.74691 0.194009
19 1 -0.000166163 1.68947e-05 0.419573 10676.9 1 1.74692 0.194005
20 1 -0.000176137 1.62748e-05 0.412362 10669.5 1 1.74693 0.194
21 1 -0.000185467 1.56178e-05 0.404972 10661.9 1 1.74694 0.193996
22 1 -0.000194114 1.49337e-05 0.397472 10654.2 1 1.74696 0.193993
23 1 -0.00020205 1.42319e-05 0.389936 10646.5 1 1.74697 0.19399
24 1 -0.000209257 1.35213e-05 0.382435 10638.8 1 1.74699 0.193987
25 1 -0.000215725 1.28098e-05 0.375038 10631.3 1 1.747 0.193985
26 1 -0.000221454 1.21049e-05 0.367813 10623.8 1 1.74701 0.193983
27 1 -0.000226452 1.14129e-05 0.360823 10616.7 1 1.74703 0.193982
28 1 -0.000230731 1.07397e-05 0.354125 10609.8 1 1.74704 0.193981
29 1 -0.000234309 1.009e-05 0.347774 10603.3 1 1.74706 0.193981
30 1 -0.000237212 9.46794e-06 0.341816 10597.2 1 1.74707 0.193981
31 1 -0.000239464 8.87675e-06 0.336293 10591.5 1 1.74709 0.193981
32 1 -0.000241096 8.31891e-06 0.331237 10586.4 1 1.7471 0.193982
33 1 -0.00024214 7.79618e-06 0.326676 10581.7 1 1.74711 0.193983
34 1 -0.000242628 7.30965e-06 0.322629 10577.5 1 1.74713 0.193984
35 1 -0.000242594 6.85976e-06 0.319108 10573.9 1 1.74714 0.193986
36 1 -0.000242072 6.44642e-06 0.31612 10570.9 1 1.74715 0.193987
37 1 -0.000241093 6.06898e-06 0.313661 10568.4 1 1.74717 0.193989
38 1 -0.00023969 5.72637e-06 0.311723 10566.4 1 1.74718 0.193992
39 1 -0.000237894 5.4171e-06 0.310292 10564.9 1 1.74719 0.193994
40 1 -0.000235734 5.13934e-06 0.309344 10563.9 1 1.7472 0.193996
41 1 -0.000233235 4.89096e-06 0.308854 10563.4 1 1.74721 0.193999
42 1 -0.000230424 4.66962e-06 0.308789 10563.4 1 1.74722 0.194002
43 1 -0.000227323 4.47277e-06 0.309112 10563.7 1 1.74723 0.194005
44 1 -0.000223951 4.29772e-06 0.309782 10564.4 1 1.74724 0.194008
45 1 -0.000220327 4.14169e-06 0.310754 10565.4 1 1.74725 0.194011
46 1 -0.000216466 4.00187e-06 0.31198 10566.6 1 1.74726 0.194014
47 1 -0.000212382 3.87541e-06 0.313411 10568.1 1 1.74727 0.194018
48 1 -0.000208084 3.75951e-06 0.314997 10569.7 1 1.74727 0.194021
49 1 -0.000203582 3.65143e-06 0.316685 10571.5 1 1.74728 0.194025
50 1 -0.000198882 3.54855e-06 0.318424 10573.2 1 1.74729 0.194028
51 1 -0.000193989 3.44835e-06 0.320163 10575 1 1.7473 0.194032
52 1 -0.000188906 3.34851e-06 0.321853 10576.8 1 1.74731 0.194036
53 1 -0.000183634 3.24687e-06 0.323446 10578.4 1 1.74731 0.19404
54 1 -0.000178173 3.14149e-06 0.324899 10579.9 1 1.74732 0.194044
55 1 -0.000172522 3.03067e-06 0.32617 10581.2 1 1.74733 0.194048
56 1 -0.000166679 2.91295e-06 0.327222 10582.3 1 1.74733 0.194052
57 1 -0.00016064 2.78714e-06 0.328023 10583.1 1 1.74734 0.194056
58 1 -0.000154403 2.65233e-06 0.328546 10583.6 1 1.74735 0.19406
59 1 -0.000147964 2.50787e-06 0.328767 10583.8 1 1.74735 0.194065
60 1 -0.000141319 2.35342e-06 0.328669 10583.7 1 1.74736 0.194069
61 1 -0.000134464 2.1889e-06 0.328242 10583.3 1 1.74736 0.194074
62 1 -0.000127396 2.01453e-06 0.32748 10582.5 1 1.74737 0.194079
63 1 -0.000120113 1.83079e-06 0.326383 10581.4 1 1.74737 0.194084
64 1 -0.000112613 1.63844e-06 0.324958 10579.9 1 1.74738 0.194089
65 1 -0.000104893 1.43847e-06 0.323216 10578.1 1 1.74738 0.194094
66 1 -9.69557e-05 1.23212e-06 0.321175 10576.1 1 1.74739 0.194099
67 1 -8.88008e-05 1.02083e-06 0.318857 10573.7 1 1.74739 0.194104
68 1 -8.04312e-05 8.06261e-07 0.316289 10571.1 1 1.7474 0.19411
69 1 -7.1851e-05 5.90218e-07 0.313504 10568.2 1 1.7474 0.194115
70 1 -6.30656e-05 3.74668e-07 0.310537 10565.2 1 1.74741 0.194121
71 1 -5.40823e-05 1.61697e-07 0.307426 10562 1 1.74741 0.194126
72 1 -4.49098e-05 -4.65164e-08 0.304213 10558.7 1 1.74741 0.194132
73 1 -3.55586e-05 -2.47724e-07 0.300944 10555.3 1 1.74742 0.194138
74 1 -2.6041e-05 -4.39641e-07 0.297662 10552 1 1.74742 0.194144
75 1 -1.63709e-05 -6.19968e-07 0.294415 10548.6 1 1.74742 0.19415
76 1 -6.56377e-06 -7.86424e-07 0.29125 10545.4 1 1.74742 0.194155
77 1 3.36307e-06 -9.36769e-07 0.288212 10542.3 1 1.74742 0.194161
78 1 1.33908e-05 -1.06883e-06 0.285347 10539.3 1 1.74742 0.194167
79 1 2.34992e-05 -1.18053e-06 0.282699 10536.6 1 1.74742 0.194173
80 1 3.36663e-05 -1.26989e-06 0.280309 10534.2 1 1.74742 0.194179
81 1 4.38692e-05 -1.33511e-06 0.278216 10532 1 1.74742 0.194185
82 1 5.40833e-05 -1.37449e-06 0.276455 10530.2 1 1.74742 0.194191
83 1 6.42832e-05 -1.38655e-06 0.275057 10528.8 1 1.74742 0.194196
84 1 7.44425e-05 -1.36997e-06 0.274051 10527.8 1 1.74742 0.194202
85 1 8.45337e-05 -1.32365e-06 0.273457 10527.2 1 1.74741 0.194207
86 1 9.45287e-05 -1.2467e-06 0.273295 10527 1 1.74741 0.194213
87 1 0.000104399 -1.13845e-06 0.273576 10527.3 1 1.7474 0.194218
88 1 0.000114115 -9.98456e-07 0.274308 10528 1 1.7474 0.194223
89 1 0.000123647 -8.26519e-07 0.275493 10529.2 1 1.74739 0.194228
90 1 0.000132967 -6.2267e-07 0.277127 10530.9 1 1.74738 0.194232
91 1 0.000142044 -3.87177e-07 0.279202 10533 1 1.74738 0.194237
92 1 0.000150848 -1.20543e-07 0.281702 10535.6 1 1.74737 0.194241
93 1 0.000159352 1.76499e-07 0.28461 10538.6 1 1.74736 0.194245
94 1 0.000167526 5.02993e-07 0.2879 10542 1 1.74735 0.194248
95 1 0.000175342 8.57766e-07 0.291545 10545.7 1 1.74734 0.194252
96 1 0.000182773 1.23944e-06 0.295512 10549.8 1 1.74733 0.194255
97 1 0.000189793 1.64644e-06 0.299765 10554.1 1 1.74732 0.194258
98 1 0.000196378 2.07702e-06 0.304263 10558.7 1 1.74731 0.19426
99 1 0.000202502 2.52925e-06 0.308966 10563.5 1 1.7473 0.194262
100 1 0.000208143 3.00108e-06 0.31383 10568.5 1 1.74728 0.194264
101 1 0.000213282 3.49029e-06 0.318807 10573.6 1 1.74727 0.194266
102 1 0.000217897 3.99459e-06 0.323853 10578.8 1 1.74726 0.194267
103 1 0.000221973 4.51157e-06 0.328921 10584 1 1.74725 0.194268
104 1 0.000225492 5.03877e-06 0.333964 10589.2 1 1.74723 0.194268
105 1 0.000228442 5.57365e-06 0.338937 10594.3 1 1.74722 0.194268
106 1 0.000230812 6.11368e-06 0.343798 10599.2 1 1.7472 0.194268
107 1 0.00023259 6.65631e-06 0.348505 10604.1 1 1.74719 0.194268
108 1 0.000233772 7.19902e-06 0.353021 10608.7 1 1.74718 0.194267
109 1 0.000234351 7.73933e-06 0.357311 10613.1 1 1.74716 0.194266
110 1 0.000234325 8.27482e-06 0.361344 10617.2 1 1.74715 0.194264
111 1 0.000233694 8.80318e-06 0.365096 10621.1 1 1.74714 0.194262
112 1 0.00023246 9.32218e-06 0.368545 10624.6 1 1.74712 0.19426
113 1 0.000230628 9.82976e-06 0.371675 10627.8 1 1.74711 0.194257
114 1 0.000228205 1.0324e-05 0.374477 10630.7 1 1.7471 0.194254
115 1 0.000225199 1.08031e-05 0.376945 10633.2 1 1.74708 0.194251
116 1 0.000221623 1.12654e-05 0.379081 10635.4 1 1.74707 0.194247
117 1 0.00021749 1.17096e-05 0.380892 10637.2 1 1.74706 0.194244
118 1 0.000212816 1.21343e-05 0.382389 10638.8 1 1.74705 0.194239
119 1 0.000207618 1.25386e-05 0.38359 10640 1 1.74704 0.194235
120 1 0.000201916 1.29214e-05 0.384518 10641 1 1.74702 0.194231
121 1 0.000195732 1.32821e-05 0.3852 10641.7 1 1.74701 0.194226
122 1 0.00018909 1.36199e-05 0.385667 10642.1 1 1.747 0.194221
123 1 0.000182015 1.39343e-05 0.385953 10642.4 1 1.74699 0.194215
124 1 0.000174534 1.42248e-05 0.386095 10642.6 1 1.74698 0.19421
125 1 0.000166676 1.44909e-05 0.386132 10642.6 1 1.74698 0.194204
126 1 0.000158472 1.4732e-05 0.386104 10642.6 1 1.74697 0.194199
127 1 0.000149956 1.49475e-05 0.386051 10642.5 1 1.74696 0.194193
128 1 0.000141163 1.51364e-05 0.386014 10642.5 1 1.74695 0.194187
129 1 0.00013213 1.52978e-05 0.386029 10642.5 1 1.74695 0.194181
130 1 0.0001229 1.54302e-05 0.386132 10642.6 1 1.74694 0.194175
131 1 0.000113514 1.55319e-05 0.386355 10642.8 1 1.74693 0.194169
132 1 0.000104022 1.56006e-05 0.386727 10643.2 1 1.74693 0.194163
133 1 9.44738e-05 1.56337e-05 0.387271 10643.8 1 1.74693 0.194157
134 1 8.49271e-05 1.56278e-05 0.388004 10644.5 1 1.74692 0.194151
135 1 7.54433e-05 1.55789e-05 0.388939 10645.5 1 1.74692 0.194145
136 1 6.60902e-05 1.54825e-05 0.390079 10646.7 1 1.74692 0.194139
137 1 5.69423e-05 1.53334e-05 0.391425 10648 1 1.74691 0.194134
138 1 4.80814e-05 1.51257e-05 0.392968 10649.6 1 1.74691 0.194128
139 1 3.95971e-05 1.48532e-05 0.394693 10651.4 1 1.74691 0.194124
140 1 3.15869e-05 1.45095e-05 0.396577 10653.3 1 1.74691 0.194119
141 1 2.41564e-05 1.40882e-05 0.398596 10655.4 1 1.74691 0.194115
142 1 1.74176e-05 1.35839e-05 0.40071 10657.6 1 1.74691 0.194111
143 1 1.14877e-05 1.29932e-05 0.402891 10659.8 1 1.74692 0.194108
144 1 6.48281e-06 1.23227e-05 0.405085 10662 1 1.74692 0.194105
145 1 2.50115e-06 1.15994e-05 0.407278 10664.3 1 1.74692 0.194103
146 1 -4.00777e-07 1.0871e-05 0.409462 10666.5 1 1.74692 0.194102
147 1 -2.13464e-06 9.92299e-06 0.411837 10669 1 1.74693 0.194102
148 1 -2.10111e-06 8.03362e-06 0.412747 10669.9 1 1.74693 0.194102
149 1 0 0 0.412747 10669.9 1 1.74693 0.194103
0 2 0 0 0.470089 10728.6 1 1.74692 0.194103
1 2 2.5384e-07 8.13799e-06 0.470089 10728.6 1 1.74692 0.194103
2 2 -9.28182e-07 1.41321e-05 0.469395 10727.9 1 1.74692 0.194102
3 2 -5.73047e-06 1.85275e-05 0.468259 10726.8 1 1.74692 0.194098
4 2 -1.41354e-05 2.22741e-05 0.467636 10726.1 1 1.74692 0.194092
5 2 -2.56692e-05 2.56295e-05 0.466709 10725.2 1 1.74691 0.194085
6 2 -3.98896e-05 2.85714e-05 0.465601 10724 1 1.74691 0.194076
7 2 -5.64205e-05 3.10651e-05 0.464125 10722.5 1 1.74691 0.194066
8 2 -7.48957e-05 3.31012e-05 0.462269 10720.6 1 1.74691 0.194055
9 2 -9.49518e-05 3.46905e-05 0.459956 10718.3 1 1.74691 0.194044
10 2 -0.000116236 3.58534e-05 0.457165 10715.4 1 1.74691 0.194031
11 2 -0.000138412 3.66156e-05 0.453868 10712 1 1.74692 0.194019
12 2 -0.000161167 3.70053e-05 0.450061 10708.1 1 1.74692 0.194006
13 2 -0.00018421 3.70521e-05 0.445747 10703.7 1 1.74692 0.193993
14 2 -0.000207276 3.67866e-05 0.440942 10698.8 1 1.74693 0.19398
15 2 -0.000230122 3.62396e-05 0.435673 10693.4 1 1.74694 0.193968
16 2 -0.000252532 3.5442e-05 0.429975 10687.5 1 1.74694 0.193956
17 2 -0.000274313 3.44246e-05 0.423892 10681.3 1 1.74695 0.193944
18 2 -0.0002953 3.32176e-05 0.417475 10674.7 1 1.74696 0.193933
19 2 -0.000315346 3.18508e-05 0.410783 10667.9 1 1.74697 0.193923
20 2 -0.000334333 3.03529e-05 0.403875 10660.8 1 1.74698 0.193913
21 2 -0.000352163 2.87513e-05 0.396816 10653.6 1 1.747 0.193904
22 2 -0.000368757 2.70723e-05 0.389672 10646.2 1 1.74701 0.193896
23 2 -0.00038406 2.53402e-05 0.38251 10638.9 1 1.74702 0.193888
24 2 -0.000398031 2.35779e-05 0.375395 10631.6 1 1.74703 0.193882
25 2 -0.000410651 2.18059e-05 0.36839 10624.4 1 1.74705 0.193876
26 2 -0.000421911 2.00429e-05 0.361557 10617.4 1 1.74706 0.193871
27 2 -0.000431819 1.83052e-05 0.354952 10610.7 1 1.74707 0.193867
28 2 -0.000440395 1.66073e-05 0.348627 10604.2 1 1.74709 0.193864
29 2 -0.000447666 1.4961e-05 0.34263 10598 1 1.7471 0.193861
30 2 -0.000453671 1.33764e-05 0.337002 10592.3 1 1.74711 0.193859
31 2 -0.000458453 1.18614e-05 0.331777 10586.9 1 1.74713 0.193858
32 2 -0.000462064 1.0422e-05 0.326986 10582 1 1.74714 0.193858
33 2 -0.000464555 9.06228e-06 0.32265 10577.6 1 1.74715 0.193858
34 2 -0.000465984 7.78484e-06 0.318786 10573.6 1 1.74717 0.193858
35 2 -0.000466408 6.59061e-06 0.315402 10570.1 1 1.74718 0.19386
36 2 -0.000465885 5.47922e-06 0.312502 10567.2 1 1.74719 0.193861
37 2 -0.000464473 4.44909e-06 0.310082 10564.7 1 1.7472 0.193864
38 2 -0.000462226 3.49758e-06 0.308133 10562.7 1 1.74721 0.193866
39 2 -0.000459199 2.62117e-06 0.306639 10561.2 1 1.74722 0.193869
40 2 -0.000455443 1.81558e-06 0.305581 10560.1 1 1.74723 0.193873
41 2 -0.000451006 1.07595e-06 0.304932 10559.4 1 1.74725 0.193877
42 2 -0.000445932 3.96918e-07 0.304663 10559.1 1 1.74726 0.193881
43 2 -0.000440261 -2.27208e-07 0.304741 10559.2 1 1.74726 0.193885
44 2 -0.000434031 -8.02364e-07 0.305127 10559.6 1 1.74727 0.19389
45 2 -0.000427273 -1.33461e-06 0.305782 10560.3 1 1.74728 0.193895
46 2 -0.000420017 -1.83003e-06 0.306664 10561.2 1 1.74729 0.1939
47 2 -0.000412288 -2.29465e-06 0.307727 10562.3 1 1.7473 0.193906
48 2 -0.000404105 -2.73435e-06 0.308928 10563.5 1 1.74731 0.193911
49 2 -0.000395486 -3.15479e-06 0.310221 10564.8 1 1.74732 0.193917
50 2 -0.000386445 -3.56133e-06 0.31156 10566.2 1 1.74732 0.193923
51 2 -0.000376992 -3.95898e-06 0.312901 10567.6 1 1.74733 0.19393
52 2 -0.000367135 -4.35235e-06 0.314202 10568.9 1 1.74734 0.193936
53 2 -0.000356878 -4.74561e-06 0.31542 10570.2 1 1.74735 0.193943
54 2 -0.000346224 -5.14241e-06 0.316519 10571.3 1 1.74735 0.19395
55 2 -0.000335174 -5.5459e-06 0.317462 10572.3 1 1.74736 0.193957
56 2 -0.000323726 -5.95866e-06 0.318218 10573 1 1.74737 0.193965
57 2 -0.000311879 -6.38271e-06 0.318759 10573.6 1 1.74737 0.193972
58 2 -0.00029963 -6.81949e-06 0.319062 10573.9 1 1.74738 0.19398
59 2 -0.000286975 -7.26985e-06 0.319107 10573.9 1 1.74739 0.193988
60 2 -0.000273912 -7.73406e-06 0.318881 10573.7 1 1.74739 0.193997
61 2 -0.000260437 -8.21182e-06 0.318374 10573.2 1 1.7474 0.194005
62 2 -0.000246547 -8.70224e-06 0.317582 10572.4 1 1.7474 0.194014
63 2 -0.000232242 -9.20394e-06 0.316506 10571.3 1 1.74741 0.194023
64 2 -0.000217522 -9.715e-06 0.315152 10569.9 1 1.74741 0.194032
65 2 -0.000202388 -1.0233e-05 0.313531 10568.2 1 1.74742 0.194042
66 2 -0.000186843 -1.07552e-05 0.311657 10566.3 1 1.74742 0.194051
67 2 -0.000170894 -1.12782e-05 0.309551 10564.1 1 1.74743 0.194061
68 2 -0.000154547 -1.17986e-05 0.307237 10561.8 1 1.74743 0.194071
69 2 -0.000137815 -1.23123e-05 0.304742 10559.2 1 1.74744 0.194081
70 2 -0.000120709 -1.28154e-05 0.302097 10556.5 1 1.74744 0.194092
71 2 -0.000103245 -1.33034e-05 0.299337 10553.7 1 1.74744 0.194102
72 2 -8.54427e-05 -1.37718e-05 0.296497 10550.8 1 1.74744 0.194113
73 2 -6.73231e-05 -1.4216e-05 0.293615 10547.8 1 1.74745 0.194124
74 2 -4.89108e-05 -1.46314e-05 0.29073 10544.9 1 1.74745 0.194135
75 2 -3.02331e-05 -1.50133e-05 0.287884 10541.9 1 1.74745 0.194146
76 2 -1.13204e-05 -1.53572e-05 0.285116 10539.1 1 1.74745 0.194157
77 2 7.79417e-06 -1.56586e-05 0.282466 10536.4 1 1.74745 0.194168
78 2 2.70749e-05 -1.59131e-05 0.279973 10533.8 1 1.74745 0.194179
79 2 4.64835e-05 -1.61167e-05 0.277675 10531.5 1 1.74745 0.194191
80 2 6.5979e-05 -1.62654e-05 0.275608 10529.4 1 1.74745 0.194202
81 2 8.55182e-05 -1.63556e-05 0.273806 10527.5 1 1.74745 0.194213
82 2 0.000105056 -1.63841e-05 0.272298 10526 1 1.74745 0.194224
83 2 0.000124545 -1.63478e-05 0.271113 10524.8 1 1.74745 0.194235
84 2 0.000143937 -1.62442e-05 0.270274 10523.9 1 1.74744 0.194246
85 2 0.000163181 -1.60709e-05 0.269801 10523.4 1 1.74744 0.194257
86 2 0.000182225 -1.58263e-05 0.26971 10523.3 1 1.74744 0.194268
87 2 0.000201018 -1.5509e-05 0.270012 10523.6 1 1.74743 0.194278
88 2 0.000219505 -1.51179e-05 0.270714 10524.4 1 1.74742 0.194288
89 2 0.000237633 -1.46526e-05 0.271819 10525.5 1 1.74742 0.194298
90 2 0.000255347 -1.4113e-05 0.273325 10527 1 1.74741 0.194308
91 2 0.000272594 -1.34995e-05 0.275223 10529 1 1.7474 0.194317
92 2 0.00028932 -1.2813e-05 0.277504 10531.3 1 1.7474 0.194326
93 2 0.000305471 -1.20548e-05 0.280152 10534 1 1.74739 0.194334
94 2 0.000320995 -1.12266e-05 0.283146 10537.1 1 1.74738 0.194342
95 2 0.000335842 -1.03306e-05 0.286463 10540.5 1 1.74737 0.194349
96 2 0.00034996 -9.36945e-06 0.290075 10544.2 1 1.74736 0.194357
97 2 0.000363303 -8.34604e-06 0.293953 10548.2 1 1.74735 0.194363
98 2 0.000375823 -7.26381e-06 0.298062 10552.4 1 1.74734 0.194369
99 2 0.000387476 -6.12651e-06 0.302367 10556.8 1 1.74733 0.194375
100 2 0.000398221 -4.93825e-06 0.30683 10561.4 1 1.74732 0.194379
101 2 0.000408018 -3.70344e-06 0.311412 10566.1 1 1.74731 0.194384
102 2 0.000416832 -2.42679e-06 0.316073 10570.8 1 1.74729 0.194387
103 2 0.00042463 -1.11327e-06 0.320773 10575.6 1 1.74728 0.19439
104 2 0.00043138 2.31913e-07 0.325471 10580.5 1 1.74727 0.194393
105 2 0.000437058 1.60338e-06 0.330128 10585.2 1 1.74726 0.194395
106 2 0.000441641 2.99557e-06 0.334706 10589.9 1 1.74724 0.194396
107 2 0.00044511 4.40284e-06 0.339169 10594.5 1 1.74723 0.194396
108 2 0.00044745 5.81944e-06 0.343482 10598.9 1 1.74722 0.194396
109 2 0.000448651 7.2396e-06 0.347614 10603.1 1 1.7472 0.194395
110 2 0.000448706 8.65758e-06 0.351538 10607.2 1 1.74719 0.194394
111 2 0.000447614 1.00677e-05 0.355231 10611 1 1.74718 0.194391
112 2 0.000445376 1.14643e-05 0.35867 10614.5 1 1.74717 0.194389
113 2 0.000442 1.28419e-05 0.361843 10617.7 1 1.74715 0.194385
114 2 0.000437496 1.41952e-05 0.364736 10620.7 1 1.74714 0.194381
115 2 0.00043188 1.55193e-05 0.367346 10623.4 1 1.74713 0.194376
116 2 0.000425171 1.68091e-05 0.369669 10625.7 1 1.74712 0.194371
117 2 0.000417393 1.806e-05 0.371711 10627.8 1 1.74711 0.194365
118 2 0.000408575 1.92678e-05 0.373479 10629.7 1 1.74709 0.194358
119 2 0.000398748 2.04284e-05 0.374987 10631.2 1 1.74708 0.194351
120 2 0.000387948 2.15377e-05 0.376253 10632.5 1 1.74707 0.194344
121 2 0.000376216 2.25923e-05 0.377298 10633.6 1 1.74706 0.194336
122 2 0.000363596 2.35885e-05 0.378147 10634.4 1 1.74705 0.194327
123 2 0.000350135 2.45229e-05 0.37883 10635.1 1 1.74704 0.194318
124 2 0.000335885 2.53921e-05 0.379375 10635.7 1 1.74703 0.194309
125 2 0.000320902 2.61927e-05 0.379817 10636.1 1 1.74702 0.194299
126 2 0.000305247 2.69209e-05 0.380189 10636.5 1 1.74702 0.194289
127 2 0.000288984 2.75727e-05 0.380524 10636.9 1 1.74701 0.194278
128 2 0.000272182 2.81435e-05 0.380856 10637.2 1 1.747 0.194268
129 2 0.000254916 2.86283e-05 0.381217 10637.6 1 1.747 0.194257
130 2 0.000237267 2.90211e-05 0.381637 10638 1 1.74699 0.194246
131 2 0.000219321 2.9315e-05 0.382144 10638.5 1 1.74698 0.194235
132 2 0.000201173 2.95021e-05 0.38276 10639.2 1 1.74698 0.194224
133 2 0.000182924 2.95732e-05 0.383506 10639.9 1 1.74698 0.194213
134 2 0.000164685 2.95175e-05 0.384395 10640.8 1 1.74697 0.194202
135 2 0.000146578 2.93231e-05 0.385438 10641.9 1 1.74697 0.194191
136 2 0.000128734 2.89763e-05 0.386637 10643.1 1 1.74697 0.19418
137 2 0.000111298 2.84621e-05 0.387992 10644.5 1 1.74696 0.19417
138 2 9.44242e-05 2.77641e-05 0.389491 10646.1 1 1.74696 0.19416
139 2 7.82837e-05 2.68652e-05 0.391124 10647.7 1 1.74696 0.194151
140 2 6.30592e-05 2.57481e-05 0.392865 10649.5 1 1.74696 0.194142
141 2 4.89462e-05 2.43967e-05 0.394695 10651.4 1 1.74696 0.194134
142 2 3.61506e-05 2.27984e-05 0.396571 10653.3 1 1.74696 0.194127
143 2 2.48825e-05 2.09483e-05 0.398477 10655.3 1 1.74697 0.194121
144 2 1.53507e-05 1.88573e-05 0.400325 10657.2 1 1.74697 0.194115
145 2 7.77249e-06 1.65538e-05 0.402158 10659 1 1.74697 0.194111
146 2 2.42951e-06 1.40428e-05 0.403707 10660.6 1 1.74697 0.194109
147 2 -3.47416e-07 1.10432e-05 0.405575 10662.5 1 1.74697 0.194108
148 2 -5.79125e-07 6.60547e-06 0.406569 10663.6 1 1.74698 0.194108
149 2 0 0 0.406569 10663.6 1 1.74698 0.194108
0 3 0 0 0.461193 10719.5 1 1.74698 0.194108
1 3 -1.3447e-06 8.93399e-06 0.461193 10719.5 1 1.74698 0.194108
2 3 -4.99968e-06 1.83515e-05 0.46063 10719 1 1.74698 0.194105
3 3 -1.28085e-05 2.67831e-05 0.460003 10718.3 1 1.74697 0.1941
4 3 -2.49849e-05 3.44042e-05 0.459468 10717.8 1 1.74697 0.194092
5 3 -4.12329e-05 4.1168e-05 0.458318 10716.6 1 1.74697 0.194082
6 3 -6.11039e-05 4.70725e-05 0.457062 10715.3 1 1.74697 0.19407
7 3 -8.41111e-05 5.20916e-05 0.455396 10713.6 1 1.74697 0.194056
8 3 -0.000109764 5.6224e-05 0.453383 10711.5 1 1.74697 0.194041
9 3 -0.000137583 5.94896e-05 0.450927 10709 1 1.74697 0.194024
10 3 -0.000167105 6.19261e-05 0.448028 10706 1 1.74697 0.194007
11 3 -0.000197885 6.35808e-05 0.444654 10702.6 1 1.74697 0.193989
12 3 -0.000229507 6.4507e-05 0.440808 10698.6 1 1.74698 0.193971
13 3 -0.000261578 6.47613e-05 0.436492 10694.2 1 1.74698 0.193953
14 3 -0.00029374 6.44022e-05 0.431725 10689.3 1 1.74699 0.193935
15 3 -0.000325665 6.34891e-05 0.426533 10684 1 1.74699 0.193917
16 3 -0.000357055 6.20818e-05 0.420952 10678.3 1 1.747 0.1939
17 3 -0.000387647 6.02396e-05 0.415024 10672.2 1 1.74701 0.193883
18 3 -0.000417209 5.80212e-05 0.408798 10665.8 1 1.74702 0.193867
19 3 -0.00044554 5.54838e-05 0.402328 10659.2 1 1.74703 0.193852
20 3 -0.000472471 5.26827e-05 0.395673 10652.4 1 1.74704 0.193837
21 3 -0.000497861 4.96711e-05 0.388893 10645.4 1 1.74705 0.193824
22 3 -0.000521598 4.64992e-05 0.38205 10638.4 1 1.74706 0.193811
23 3 -0.000543597 4.3214e-05 0.375206 10631.4 1 1.74707 0.1938
24 3 -0.000563797 3.98592e-05 0.36842 10624.5 1 1.74708 0.19379
25 3 -0.000582161 3.64744e-05 0.361752 10617.6 1 1.74709 0.193781
26 3 -0.00059867 3.30952e-05 0.355255 10611 1 1.7471 0.193773
27 3 -0.000613326 2.97533e-05 0.348983 10604.6 1 1.74712 0.193766
28 3 -0.000626147 2.6476e-05 0.342981 10598.4 1 1.74713 0.19376
29 3 -0.000637162 2.32864e-05 0.33729 10592.6 1 1.74714 0.193755
30 3 -0.000646416 2.02039e-05 0.331948 10587.1 1 1.74715 0.193751
31 3 -0.000653961 1.72435e-05 0.326984 10582 1 1.74717 0.193748
32 3 -0.000659856 1.44171e-05 0.322424 10577.3 1 1.74718 0.193747
33 3 -0.000664169 1.17328e-05 0.318285 10573.1 1 1.74719 0.193746
34 3 -0.000666968 9.19556e-06 0.31458 10569.3 1 1.7472 0.193745
35 3 -0.000668327 6.80771e-06 0.311315 10566 1 1.74721 0.193746
36 3 -0.000668317 4.56889e-06 0.308492 10563.1 1 1.74723 0.193748
37 3 -0.000667014 2.47653e-06 0.306106 10560.6 1 1.74724 0.19375
38 3 -0.000664487 5.26126e-07 0.304146 10558.6 1 1.74725 0.193753
39 3 -0.000660808 -1.28846e-06 0.302597 10557 1 1.74726 0.193756
40 3 -0.00065604 -2.97471e-06 0.301439 10555.8 1 1.74727 0.19376
41 3 -0.000650248 -4.54122e-06 0.30065 10555 1 1.74728 0.193765
42 3 -0.00064349 -5.99739e-06 0.3002 10554.6 1 1.74729 0.19377
43 3 -0.00063582 -7.35324e-06 0.300059 10554.4 1 1.7473 0.193775
44 3 -0.000627286 -8.61917e-06 0.300194 10554.6 1 1.74731 0.193781
45 3 -0.000617934 -9.80578e-06 0.300567 10554.9 1 1.74732 0.193788
46 3 -0.000607801 -1.09236e-05 0.301142 10555.5 1 1.74733 0.193795
47 3 -0.000596924 -1.19832e-05 0.301878 10556.3 1 1.74733 0.193802
48 3 -0.000585331 -1.29946e-05 0.302737 10557.2 1 1.74734 0.19381
49 3 -0.000573048 -1.39675e-05 0.303678 10558.1 1 1.74735 0.193818
50 3 -0.000560096 -1.49111e-05 0.304661 10559.1 1 1.74736 0.193827
51 3 -0.000546492 -1.58338e-05 0.305648 10560.1 1 1.74737 0.193835
52 3 -0.000532249 -1.67433e-05 0.306602 10561.1 1 1.74737 0.193845
53 3 -0.000517378 -1.76466e-05 0.307487 10562 1 1.74738 0.193854
54 3 -0.000501887 -1.85496e-05 0.30827 10562.8 1 1.74739 0.193864
55 3 -0.000485781 -1.94573e-05 0.308922 10563.5 1 1.74739 0.193874