Title="LBM for phase change with fin"
dt=1 dx=1
VARIABLES="X","Y","U","V","T","H","fl","pa","Test"
ZONE T="BOX",I=150,J=150,F=POINT
0 0 0 0 0.505043 10764.5 1 1.6234 0.180379
1 0 0 0 0.512602 10772.2 1 1.6234 0.180379
2 0 0 0 0.513609 10773.2 1 1.6234 0.180377
3 0 0 0 0.514058 10773.7 1 1.62339 0.180377
4 0 0 0 0.514903 10774.6 1 1.62339 0.180376
5 0 0 0 0.515673 10775.4 1 1.62339 0.180376
6 0 0 0 0.516038 10775.7 1 1.62339 0.180375
7 0 0 0 0.515793 10775.5 1 1.62338 0.180375
8 0 0 0 0.514792 10774.5 1 1.62338 0.180375
9 0 0 0 0.512915 10772.5 1 1.62339 0.180375
10 0 0 0 0.510083 10769.6 1 1.62339 0.180375
11 0 0 0 0.506238 10765.7 1 1.62339 0.180375
12 0 0 0 0.501355 10760.7 1 1.6234 0.180376
13 0 0 0 0.49543 10754.6 1 1.6234 0.180377
14 0 0 0 0.488487 10747.5 1 1.62341 0.180378
15 0 0 0 0.480569 10739.4 1 1.62342 0.180379
16 0 0 0 0.471743 10730.3 1 1.62343 0.18038
17 0 0 0 0.462091 10720.5 1 1.62344 0.180381
18 0 0 0 0.451713 10709.8 1 1.62345 0.180383
19 0 0 0 0.440723 10698.6 1 1.62346 0.180384
20 0 0 0 0.429243 10686.8 1 1.62348 0.180386
21 0 0 0 0.417405 10674.7 1 1.62349 0.180387
22 0 0 0 0.405345 10662.3 1 1.62351 0.180389
23 0 0 0 0.393202 10649.9 1 1.62352 0.180391
24 0 0 0 0.381116 10637.5 1 1.62354 0.180393
25 0 0 0 0.369221 10625.3 1 1.62355 0.180394
26 0 0 0 0.357649 10613.4 1 1.62357 0.180396
27 0 0 0 0.346525 10602 1 1.62358 0.180398
28 0 0 0 0.335965 10591.2 1 1.6236 0.180399
29 0 0 0 0.326073 10581.1 1 1.62361 0.180401
30 0 0 0 0.316945 10571.7 1 1.62362 0.180403
31 0 0 0 0.308662 10563.2 1 1.62364 0.180404
32 0 0 0 0.301293 10555.7 1 1.62365 0.180406
33 0 0 0 0.29489 10549.1 1 1.62366 0.180407
34 0 0 0 0.289495 10543.6 1 1.62368 0.180409
35 0 0 0 0.28513 10539.1 1 1.62369 0.18041
36 0 0 0 0.281805 10535.7 1 1.6237 0.180411
37 0 0 0 0.279515 10533.4 1 1.62371 0.180412
38 0 0 0 0.278239 10532.1 1 1.62372 0.180413
39 0 0 0 0.277943 10531.8 1 1.62373 0.180414
40 0 0 0 0.278579 10532.4 1 1.62374 0.180415
41 0 0 0 0.280086 10534 1 1.62375 0.180416
42 0 0 0 0.28239 10536.3 1 1.62375 0.180417
43 0 0 0 0.285409 10539.4 1 1.62376 0.180418
44 0 0 0 0.28905 10543.1 1 1.62377 0.180419
45 0 0 0 0.293212 10547.4 1 1.62378 0.18042
46 0 0 0 0.297787 10552.1 1 1.62378 0.18042
47 0 0 0 0.302664 10557.1 1 1.62379 0.180421
48 0 0 0 0.307726 10562.3 1 1.6238 0.180422
49 0 0 0 0.312859 10567.5 1 1.6238 0.180423
50 0 0 0 0.317944 10572.7 1 1.62381 0.180423
51 0 0 0 0.322869 10577.8 1 1.62382 0.180424
52 0 0 0 0.327523 10582.6 1 1.62382 0.180425
53 0 0 0 0.331801 10586.9 1 1.62383 0.180426
54 0 0 0 0.335608 10590.8 1 1.62384 0.180426
55 0 0 0 0.338853 10594.2 1 1.62385 0.180427
56 0 0 0 0.341459 10596.8 1 1.62385 0.180428
57 0 0 0 0.34336 10598.8 1 1.62386 0.180429
58 0 0 0 0.344499 10600 1 1.62387 0.18043
59 0 0 0 0.344837 10600.3 1 1.62388 0.180431
60 0 0 0 0.344344 10599.8 1 1.62389 0.180432
61 0 0 0 0.343007 10598.4 1 1.6239 0.180433
62 0 0 0 0.340827 10596.2 1 1.62391 0.180434
63 0 0 0 0.337817 10593.1 1 1.62392 0.180435
64 0 0 0 0.334005 10589.2 1 1.62393 0.180437
65 0 0 0 0.329434 10584.5 1 1.62394 0.180438
66 0 0 0 0.324156 10579.1 1 1.62395 0.180439
67 0 0 0 0.318237 10573 1 1.62396 0.18044
68 0 0 0 0.311752 10566.4 1 1.62397 0.180441
69 0 0 0 0.304786 10559.3 1 1.62398 0.180443
70 0 0 0 0.297431 10551.7 1 1.62399 0.180444
71 0 0 0 0.289787 10543.9 1 1.624 0.180445
72 0 0 0 0.281956 10535.9 1 1.62401 0.180447
73 0 0 0 0.274046 10527.8 1 1.62403 0.180448
74 0 0 0 0.266163 10519.7 1 1.62404 0.180449
75 0 0 0 0.258415 10511.7 1 1.62405 0.18045
76 0 0 0 0.250908 10504.1 1 1.62406 0.180451
77 0 0 0 0.243744 10496.7 1 1.62407 0.180452
78 0 0 0 0.23702 10489.8 1 1.62408 0.180454
79 0 0 0 0.230825 10483.5 1 1.62409 0.180455
80 0 0 0 0.225243 10477.8 1 1.6241 0.180456
81 0 0 0 0.220346 10472.7 1 1.6241 0.180457
82 0 0 0 0.216197 10468.5 1 1.62411 0.180457
83 0 0 0 0.212847 10465.1 1 1.62412 0.180458
84 0 0 0 0.210337 10462.5 1 1.62413 0.180459
85 0 0 0 0.208692 10460.8 1 1.62413 0.18046
86 0 0 0 0.207925 10460 1 1.62414 0.180461
87 0 0 0 0.208039 10460.1 1 1.62415 0.180461
88 0 0 0 0.209018 10461.1 1 1.62415 0.180462
89 0 0 0 0.210836 10463 1 1.62416 0.180462
90 0 0 0 0.213455 10465.7 1 1.62416 0.180463
91 0 0 0 0.216823 10469.1 1 1.62417 0.180463
92 0 0 0 0.220875 10473.3 1 1.62417 0.180464
93 0 0 0 0.225539 10478.1 1 1.62417 0.180464
94 0 0 0 0.230731 10483.4 1 1.62418 0.180464
95 0 0 0 0.236359 10489.1 1 1.62418 0.180465
96 0 0 0 0.242324 10495.3 1 1.62418 0.180465
97 0 0 0 0.248523 10501.6 1 1.62419 0.180465
98 0 0 0 0.254847 10508.1 1 1.62419 0.180466
99 0 0 0 0.261186 10514.6 1 1.62419 0.180466
100 0 0 0 0.26743 10521 1 1.62419 0.180466
101 0 0 0 0.27347 10527.2 1 1.6242 0.180467
102 0 0 0 0.279198 10533 1 1.6242 0.180467
103 0 0 0 0.284514 10538.5 1 1.6242 0.180468
104 0 0 0 0.289323 10543.4 1 1.62421 0.180468
105 0 0 0 0.293537 10547.7 1 1.62421 0.180468
106 0 0 0 0.297076 10551.4 1 1.62422 0.180469
107 0 0 0 0.299874 10554.2 1 1.62422 0.180469
108 0 0 0 0.301874 10556.3 1 1.62423 0.18047
109 0 0 0 0.303032 10557.5 1 1.62423 0.18047
110 0 0 0 0.303315 10557.8 1 1.62424 0.180471
111 0 0 0 0.302707 10557.1 1 1.62424 0.180472
112 0 0 0 0.301203 10555.6 1 1.62425 0.180472
113 0 0 0 0.298813 10553.1 1 1.62425 0.180473
114 0 0 0 0.295559 10549.8 1 1.62426 0.180474
115 0 0 0 0.291479 10545.6 1 1.62427 0.180475
116 0 0 0 0.286619 10540.6 1 1.62427 0.180475
117 0 0 0 0.281042 10534.9 1 1.62428 0.180476
118 0 0 0 0.274818 10528.6 1 1.62429 0.180477
119 0 0 0 0.268027 10521.6 1 1.62429 0.180478
120 0 0 0 0.260759 10514.1 1 1.6243 0.180478
121 0 0 0 0.253109 10506.3 1 1.62431 0.180479
122 0 0 0 0.245178 10498.2 1 1.62431 0.18048
123 0 0 0 0.237071 10489.9 1 1.62432 0.180481
124 0 0 0 0.228896 10481.5 1 1.62433 0.180481
125 0 0 0 0.220758 10473.2 1 1.62433 0.180482
126 0 0 0 0.212766 10465 1 1.62434 0.180483
127 0 0 0 0.205022 10457 1 1.62434 0.180483
128 0 0 0 0.197626 10449.5 1 1.62435 0.180484
129 0 0 0 0.19067 10442.3 1 1.62435 0.180484
130 0 0 0 0.184239 10435.7 1 1.62436 0.180485
131 0 0 0 0.178412 10429.8 1 1.62436 0.180485
132 0 0 0 0.173253 10424.5 1 1.62436 0.180486
133 0 0 0 0.168819 10419.9 1 1.62437 0.180486
134 0 0 0 0.165151 10416.2 1 1.62437 0.180486
135 0 0 0 0.162278 10413.2 1 1.62437 0.180486
136 0 0 0 0.160216 10411.1 1 1.62437 0.180486
137 0 0 0 0.158965 10409.8 1 1.62437 0.180486
138 0 0 0 0.158508 10409.4 1 1.62437 0.180486
139 0 0 0 0.158816 10409.7 1 1.62437 0.180486
140 0 0 0 0.159839 10410.7 1 1.62437 0.180486
141 0 0 0 0.161516 10412.5 1 1.62437 0.180486
142 0 0 0 0.163764 10414.8 1 1.62437 0.180485
143 0 0 0 0.166497 10417.6 1 1.62436 0.180485
144 0 0 0 0.169586 10420.7 1 1.62436 0.180485
145 0 0 0 0.172938 10424.2 1 1.62436 0.180485
146 0 0 0 0.176425 10427.7 1 1.62436 0.180485
147 0 0 0 0.180148 10431.5 1 1.62436 0.180484
148 0 0 0 0.182206 10433.7 1 1.62436 0.180485
149 0 0 0 0.176341 10427.6 1 1.62436 0.180485
0 1 0 0 0.505043 10764.5 1 1.6234 0.180379
1 1 2.4343e-06 9.98895e-06 0.505043 10764.5 1 1.6234 0.18038
2 1 1.9939e-06 1.27507e-05 0.505218 10764.6 1 1.6234 0.180379
3 1 -1.2221e-06 1.44398e-05 0.50486 10764.3 1 1.62339 0.180376
4 1 -6.47631e-06 1.58252e-05 0.504939 10764.4 1 1.62339 0.180373
5 1 -1.35762e-05 1.71247e-05 0.504993 10764.4 1 1.62339 0.180368
6 1 -2.23443e-05 1.82688e-05 0.504708 10764.1 1 1.62339 0.180363
7 1 -3.25496e-05 1.92204e-05 0.503885 10763.3 1 1.62338 0.180357
8 1 -4.39417e-05 1.99704e-05 0.50239 10761.7 1 1.62338 0.180351
9 1 -5.62737e-05 2.05232e-05 0.50011 10759.4 1 1.62339 0.180344
10 1 -6.93096e-05 2.0887e-05 0.496971 10756.2 1 1.62339 0.180338
11 1 -8.28271e-05 2.10716e-05 0.492923 10752 1 1.62339 0.180331
12 1 -9.66197e-05 2.10887e-05 0.487941 10746.9 1 1.6234 0.180324
13 1 -0.000110498 2.09511e-05 0.482025 10740.9 1 1.6234 0.180317
14 1 -0.000124288 2.06726e-05 0.475198 10733.9 1 1.62341 0.18031
15 1 -0.000137838 2.02675e-05 0.467502 10726 1 1.62342 0.180304
16 1 -0.000151011 1.97511e-05 0.458998 10717.3 1 1.62343 0.180298
17 1 -0.00016369 1.91388e-05 0.449765 10707.8 1 1.62344 0.180293
18 1 -0.000175776 1.84462e-05 0.439896 10697.7 1 1.62345 0.180287
19 1 -0.000187189 1.76892e-05 0.429496 10687.1 1 1.62346 0.180283
20 1 -0.000197866 1.68832e-05 0.418678 10676 1 1.62348 0.180279
21 1 -0.000207761 1.60433e-05 0.407565 10664.6 1 1.62349 0.180275
22 1 -0.000216846 1.5184e-05 0.396279 10653 1 1.62351 0.180272
23 1 -0.000225106 1.4319e-05 0.384948 10641.4 1 1.62352 0.180269
24 1 -0.000232541 1.34608e-05 0.373698 10629.9 1 1.62354 0.180267
25 1 -0.000239165 1.26212e-05 0.362651 10618.6 1 1.62355 0.180265
26 1 -0.000245 1.18105e-05 0.351925 10607.6 1 1.62357 0.180263
27 1 -0.000250081 1.10379e-05 0.34163 10597 1 1.62358 0.180262
28 1 -0.00025445 1.03111e-05 0.33187 10587 1 1.6236 0.180262
29 1 -0.000258155 9.63667e-06 0.322738 10577.7 1 1.62361 0.180261
30 1 -0.000261251 9.01978e-06 0.314315 10569 1 1.62362 0.180261
31 1 -0.000263795 8.46432e-06 0.306672 10561.2 1 1.62364 0.180262
32 1 -0.000265847 7.97295e-06 0.299866 10554.2 1 1.62365 0.180262
33 1 -0.000267469 7.54715e-06 0.293943 10548.2 1 1.62366 0.180263
34 1 -0.000268723 7.18732e-06 0.288935 10543 1 1.62368 0.180263
35 1 -0.000269669 6.89282e-06 0.28486 10538.8 1 1.62369 0.180264
36 1 -0.000270366 6.66206e-06 0.281721 10535.6 1 1.6237 0.180265
37 1 -0.000270872 6.49261e-06 0.279512 10533.4 1 1.62371 0.180266
38 1 -0.000271237 6.38128e-06 0.278209 10532 1 1.62372 0.180267
39 1 -0.000271513 6.32419e-06 0.27778 10531.6 1 1.62373 0.180268
40 1 -0.000271742 6.31687e-06 0.278177 10532 1 1.62374 0.180268
41 1 -0.000271966 6.35435e-06 0.279345 10533.2 1 1.62375 0.180269
42 1 -0.000272218 6.43124e-06 0.281215 10535.1 1 1.62375 0.18027
43 1 -0.000272529 6.54184e-06 0.283711 10537.7 1 1.62376 0.180271
44 1 -0.000272921 6.6802e-06 0.286748 10540.8 1 1.62377 0.180271
45 1 -0.000273414 6.8402e-06 0.290236 10544.4 1 1.62378 0.180272
46 1 -0.000274019 7.01568e-06 0.294078 10548.3 1 1.62378 0.180272
47 1 -0.000274746 7.20049e-06 0.298174 10552.5 1 1.62379 0.180272
48 1 -0.000275596 7.38855e-06 0.30242 10556.8 1 1.6238 0.180273
49 1 -0.000276567 7.574e-06 0.306713 10561.2 1 1.6238 0.180273
50 1 -0.000277652 7.75122e-06 0.31095 10565.6 1 1.62381 0.180273
51 1 -0.000278839 7.91491e-06 0.315031 10569.8 1 1.62382 0.180273
52 1 -0.000280113 8.06019e-06 0.318859 10573.7 1 1.62382 0.180273
53 1 -0.000281456 8.18264e-06 0.322343 10577.3 1 1.62383 0.180273
54 1 -0.000282844 8.27835e-06 0.325398 10580.4 1 1.62384 0.180273
55 1 -0.000284256 8.34398e-06 0.327949 10583 1 1.62385 0.180273
56 1 -0.000285663 8.37682e-06 0.329928 10585 1 1.62385 0.180274
57 1 -0.00028704 8.37475e-06 0.331277 10586.4 1 1.62386 0.180274
58 1 -0.000288357 8.33636e-06 0.331952 10587.1 1 1.62387 0.180274
59 1 -0.000289586 8.26086e-06 0.331918 10587.1 1 1.62388 0.180274
60 1 -0.000290698 8.14815e-06 0.331153 10586.3 1 1.62389 0.180275
61 1 -0.000291667 7.99875e-06 0.329647 10584.7 1 1.6239 0.180275
62 1 -0.000292466 7.81385e-06 0.327404 10582.4 1 1.62391 0.180276
63 1 -0.00029307 7.59521e-06 0.324439 10579.4 1 1.62392 0.180277
64 1 -0.000293457 7.34514e-06 0.320779 10575.7 1 1.62393 0.180278
65 1 -0.000293607 7.06646e-06 0.316463 10571.2 1 1.62394 0.180279
66 1 -0.000293502 6.76246e-06 0.31154 10566.2 1 1.62395 0.18028
67 1 -0.000293129 6.4368e-06 0.306071 10560.6 1 1.62396 0.180282
68 1 -0.000292477 6.09346e-06 0.300123 10554.5 1 1.62397 0.180283
69 1 -0.000291537 5.7367e-06 0.293772 10548 1 1.62398 0.180285
70 1 -0.000290306 5.37095e-06 0.287102 10541.1 1 1.62399 0.180287
71 1 -0.000288783 5.00074e-06 0.2802 10534.1 1 1.624 0.180289
72 1 -0.000286971 4.63066e-06 0.273158 10526.9 1 1.62401 0.180291
73 1 -0.000284876 4.26527e-06 0.266068 10519.6 1 1.62403 0.180294
74 1 -0.000282508 3.90902e-06 0.259027 10512.4 1 1.62404 0.180296
75 1 -0.000279878 3.56621e-06 0.252128 10505.3 1 1.62405 0.180299
76 1 -0.000277002 3.24091e-06 0.245463 10498.5 1 1.62406 0.180301
77 1 -0.000273897 2.93691e-06 0.23912 10492 1 1.62407 0.180304
78 1 -0.000270584 2.65766e-06 0.233184 10485.9 1 1.62408 0.180307
79 1 -0.000267085 2.40623e-06 0.227732 10480.3 1 1.62409 0.18031
80 1 -0.000263424 2.18527e-06 0.222834 10475.3 1 1.6241 0.180313
81 1 -0.000259624 1.99696e-06 0.218552 10470.9 1 1.6241 0.180316
82 1 -0.000255713 1.843e-06 0.21494 10467.2 1 1.62411 0.180319
83 1 -0.000251715 1.72458e-06 0.21204 10464.2 1 1.62412 0.180322
84 1 -0.000247658 1.64234e-06 0.209885 10462 1 1.62413 0.180325
85 1 -0.000243567 1.59641e-06 0.208495 10460.6 1 1.62413 0.180328
86 1 -0.000239468 1.58634e-06 0.20788 10460 1 1.62414 0.180331
87 1 -0.000235385 1.61119e-06 0.208038 10460.1 1 1.62415 0.180334
88 1 -0.000231341 1.66946e-06 0.208955 10461.1 1 1.62415 0.180337
89 1 -0.000227356 1.75917e-06 0.210605 10462.8 1 1.62416 0.180339
90 1 -0.000223451 1.87784e-06 0.212951 10465.2 1 1.62416 0.180342
91 1 -0.000219642 2.02255e-06 0.215947 10468.2 1 1.62417 0.180344
92 1 -0.000215942 2.19e-06 0.219535 10471.9 1 1.62417 0.180347
93 1 -0.000212363 2.37651e-06 0.223648 10476.1 1 1.62417 0.180349
94 1 -0.000208913 2.5781e-06 0.228212 10480.8 1 1.62418 0.180351
95 1 -0.000205597 2.79056e-06 0.233145 10485.9 1 1.62418 0.180354
96 1 -0.000202418 3.00949e-06 0.23836 10491.2 1 1.62418 0.180356
97 1 -0.000199373 3.23036e-06 0.243764 10496.7 1 1.62419 0.180358
98 1 -0.000196457 3.44862e-06 0.249262 10502.4 1 1.62419 0.180359
99 1 -0.000193663 3.65973e-06 0.254758 10508 1 1.62419 0.180361
100 1 -0.00019098 3.85928e-06 0.260153 10513.5 1 1.62419 0.180363
101 1 -0.000188394 4.04299e-06 0.265354 10518.9 1 1.6242 0.180365
102 1 -0.000185887 4.20685e-06 0.270265 10523.9 1 1.6242 0.180367
103 1 -0.00018344 4.34716e-06 0.2748 10528.5 1 1.6242 0.180368
104 1 -0.000181033 4.46058e-06 0.278876 10532.7 1 1.62421 0.18037
105 1 -0.000178642 4.5442e-06 0.282416 10536.3 1 1.62421 0.180372
106 1 -0.000176243 4.5956e-06 0.285352 10539.3 1 1.62422 0.180373
107 1 -0.000173809 4.61288e-06 0.287627 10541.7 1 1.62422 0.180375
108 1 -0.000171315 4.59469e-06 0.289193 10543.3 1 1.62423 0.180377
109 1 -0.000168734 4.54025e-06 0.290011 10544.1 1 1.62423 0.180379
110 1 -0.000166041 4.44942e-06 0.290056 10544.2 1 1.62424 0.180381
111 1 -0.000163211 4.32263e-06 0.289315 10543.4 1 1.62424 0.180383
112 1 -0.000160219 4.16092e-06 0.287784 10541.8 1 1.62425 0.180386
113 1 -0.000157044 3.96593e-06 0.285474 10539.5 1 1.62425 0.180388
114 1 -0.000153665 3.73985e-06 0.282406 10536.3 1 1.62426 0.180391
115 1 -0.000150064 3.48543e-06 0.278615 10532.4 1 1.62427 0.180393
116 1 -0.000146228 3.20591e-06 0.274144 10527.9 1 1.62427 0.180396
117 1 -0.000142145 2.90499e-06 0.269046 10522.6 1 1.62428 0.180399
118 1 -0.000137806 2.58678e-06 0.263386 10516.8 1 1.62429 0.180402
119 1 -0.000133208 2.25573e-06 0.257235 10510.5 1 1.62429 0.180406
120 1 -0.00012835 1.9166e-06 0.250672 10503.8 1 1.6243 0.180409
121 1 -0.000123236 1.57437e-06 0.24378 10496.8 1 1.62431 0.180413
122 1 -0.000117874 1.2342e-06 0.23665 10489.4 1 1.62431 0.180416
123 1 -0.000112277 9.01336e-07 0.229373 10482 1 1.62432 0.18042
124 1 -0.00010646 5.81077e-07 0.222043 10474.5 1 1.62433 0.180424
125 1 -0.000100446 2.78689e-07 0.214753 10467 1 1.62433 0.180428
126 1 -9.42581e-05 -6.47628e-10 0.207597 10459.7 1 1.62434 0.180432
127 1 -8.79268e-05 -2.51907e-07 0.200665 10452.6 1 1.62434 0.180436
128 1 -8.14851e-05 -4.70273e-07 0.194043 10445.8 1 1.62435 0.18044
129 1 -7.49699e-05 -6.51196e-07 0.187811 10439.4 1 1.62435 0.180444
130 1 -6.84218e-05 -7.90451e-07 0.182043 10433.5 1 1.62436 0.180448
131 1 -6.18847e-05 -8.84186e-07 0.176806 10428.1 1 1.62436 0.180452
132 1 -5.54056e-05 -9.28976e-07 0.172156 10423.4 1 1.62436 0.180456
133 1 -4.90341e-05 -9.21868e-07 0.168141 10419.2 1 1.62437 0.180459
134 1 -4.28222e-05 -8.6043e-07 0.164796 10415.8 1 1.62437 0.180463
135 1 -3.6824e-05 -7.42797e-07 0.162144 10413.1 1 1.62437 0.180466
136 1 -3.10949e-05 -5.67732e-07 0.160198 10411.1 1 1.62437 0.180469
137 1 -2.56916e-05 -3.3468e-07 0.158956 10409.8 1 1.62437 0.180472
138 1 -2.06711e-05 -4.38592e-08 0.158401 10409.3 1 1.62437 0.180475
139 1 -1.609e-05 3.03634e-07 0.158504 10409.4 1 1.62437 0.180477
140 1 -1.20039e-05 7.05637e-07 0.159221 10410.1 1 1.62437 0.180479
141 1 -8.46598e-06 1.15853e-06 0.160496 10411.4 1 1.62437 0.180481
142 1 -5.52494e-06 1.65659e-06 0.162249 10413.2 1 1.62437 0.180482
143 1 -3.22186e-06 2.19073e-06 0.164404 10415.4 1 1.62436 0.180483
144 1 -1.58536e-06 2.74916e-06 0.166842 10417.9 1 1.62436 0.180484
145 1 -6.25783e-07 3.315e-06 0.16948 10420.6 1 1.62436 0.180484
146 1 -3.18585e-07 3.85229e-06 0.1722 10423.4 1 1.62436 0.180484
147 1 -5.18895e-07 4.15478e-06 0.175117 10426.4 1 1.62436 0.180484
148 1 -6.52582e-07 3.65353e-06 0.176341 10427.6 1 1.62436 0.180484
149 1 0 0 0.176341 10427.6 1 1.62436 0.180485
0 2 0 0 0.49642 10755.6 1 1.62346 0.180384
1 2 1.33697e-07 8.7559e-06 0.49642 10755.6 1 1.62346 0.180384
2 2 -1.43157e-06 1.54086e-05 0.49587 10755.1 1 1.62345 0.180383
3 2 -7.08671e-06 2.04236e-05 0.495084 10754.3 1 1.62345 0.180379
4 2 -1.68125e-05 2.47387e-05 0.494899 10754.1 1 1.62345 0.180373
5 2 -3.00847e-05 2.85934e-05 0.494386 10753.5 1 1.62345 0.180365
6 2 -4.63981e-05 3.19523e-05 0.493598 10752.7 1 1.62344 0.180356
7 2 -6.53115e-05 3.4774e-05 0.492277 10751.4 1 1.62344 0.180345
8 2 -8.63921e-05 3.70477e-05 0.490356 10749.4 1 1.62344 0.180334
9 2 -0.00010921 3.87851e-05 0.487717 10746.7 1 1.62344 0.180321
10 2 -0.000133348 4.00098e-05 0.484306 10743.2 1 1.62345 0.180308
11 2 -0.000158409 4.07516e-05 0.480072 10738.9 1 1.62345 0.180295
12 2 -0.000184022 4.10447e-05 0.475002 10733.7 1 1.62345 0.180282
13 2 -0.000209847 4.09256e-05 0.469093 10727.6 1 1.62346 0.180268
14 2 -0.000235572 4.04331e-05 0.46237 10720.7 1 1.62347 0.180255
15 2 -0.000260916 3.96072e-05 0.454875 10713.1 1 1.62348 0.180242
16 2 -0.000285632 3.84889e-05 0.446666 10704.6 1 1.62348 0.18023
17 2 -0.000309506 3.712e-05 0.437817 10695.6 1 1.62349 0.180218
18 2 -0.000332355 3.55421e-05 0.428416 10685.9 1 1.6235 0.180207
19 2 -0.000354031 3.37963e-05 0.41856 10675.8 1 1.62352 0.180197
20 2 -0.000374415 3.19229e-05 0.408355 10665.4 1 1.62353 0.180188
21 2 -0.00039342 2.99607e-05 0.397912 10654.7 1 1.62354 0.180179
22 2 -0.000410989 2.79464e-05 0.387345 10643.9 1 1.62355 0.180171
23 2 -0.000427091 2.59144e-05 0.37677 10633 1 1.62357 0.180164
24 2 -0.00044172 2.38963e-05 0.366299 10622.3 1 1.62358 0.180158
25 2 -0.000454893 2.19207e-05 0.356044 10611.8 1 1.62359 0.180152
26 2 -0.000466647 2.00128e-05 0.346109 10601.6 1 1.62361 0.180147
27 2 -0.000477037 1.81948e-05 0.336592 10591.9 1 1.62362 0.180144
28 2 -0.000486134 1.64849e-05 0.327584 10582.6 1 1.62363 0.18014
29 2 -0.00049402 1.48984e-05 0.319165 10574 1 1.62365 0.180138
30 2 -0.000500786 1.34469e-05 0.311406 10566 1 1.62366 0.180135
31 2 -0.000506531 1.21388e-05 0.304366 10558.8 1 1.62367 0.180134
32 2 -0.000511359 1.09797e-05 0.298094 10552.4 1 1.62369 0.180133
33 2 -0.000515378 9.97209e-06 0.292627 10546.8 1 1.6237 0.180132
34 2 -0.000518692 9.11588e-06 0.287987 10542 1 1.62371 0.180131
35 2 -0.000521409 8.40861e-06 0.284188 10538.2 1 1.62372 0.180131
36 2 -0.000523631 7.84562e-06 0.281229 10535.1 1 1.62373 0.180131
37 2 -0.000525456 7.42037e-06 0.2791 10532.9 1 1.62374 0.180131
38 2 -0.000526976 7.12459e-06 0.277777 10531.6 1 1.62375 0.180132
39 2 -0.000528277 6.9486e-06 0.277226 10531 1 1.62376 0.180132
40 2 -0.000529438 6.88151e-06 0.277404 10531.2 1 1.62377 0.180132
41 2 -0.000530528 6.91144e-06 0.278256 10532.1 1 1.62378 0.180133
42 2 -0.000531608 7.02574e-06 0.27972 10533.6 1 1.62378 0.180133
43 2 -0.000532731 7.21121e-06 0.281727 10535.6 1 1.62379 0.180133
44 2 -0.000533938 7.4543e-06 0.284199 10538.2 1 1.6238 0.180133
45 2 -0.000535262 7.74129e-06 0.287055 10541.1 1 1.62381 0.180134
46 2 -0.000536728 8.05851e-06 0.290208 10544.3 1 1.62382 0.180134
47 2 -0.000538349 8.3925e-06 0.293568 10547.8 1 1.62382 0.180133
48 2 -0.000540132 8.73019e-06 0.297045 10551.3 1 1.62383 0.180133
49 2 -0.000542072 9.05907e-06 0.300548 10554.9 1 1.62384 0.180133
50 2 -0.00054416 9.36736e-06 0.303986 10558.4 1 1.62384 0.180133
51 2 -0.000546377 9.64411e-06 0.307271 10561.8 1 1.62385 0.180132
52 2 -0.000548697 9.8794e-06 0.31032 10564.9 1 1.62386 0.180132
53 2 -0.000551092 1.00644e-05 0.313054 10567.7 1 1.62387 0.180131
54 2 -0.000553524 1.01915e-05 0.315401 10570.1 1 1.62387 0.180131
55 2 -0.000555954 1.02543e-05 0.317295 10572.1 1 1.62388 0.18013
56 2 -0.00055834 1.02479e-05 0.31868 10573.5 1 1.62389 0.18013
57 2 -0.000560636 1.01687e-05 0.319509 10574.4 1 1.6239 0.18013
58 2 -0.000562795 1.00145e-05 0.319744 10574.6 1 1.62391 0.180129
59 2 -0.000564771 9.78467e-06 0.319357 10574.2 1 1.62391 0.180129
60 2 -0.000566517 9.47969e-06 0.318333 10573.1 1 1.62392 0.180129
61 2 -0.000567988 9.10156e-06 0.316667 10571.4 1 1.62393 0.18013
62 2 -0.00056914 8.65351e-06 0.314363 10569.1 1 1.62394 0.18013
63 2 -0.000569935 8.13994e-06 0.311438 10566.1 1 1.62395 0.180131
64 2 -0.000570336 7.56633e-06 0.30792 10562.5 1 1.62396 0.180132
65 2 -0.000570309 6.93913e-06 0.303843 10558.3 1 1.62397 0.180133
66 2 -0.000569829 6.26561e-06 0.299255 10553.6 1 1.62398 0.180134
67 2 -0.000568872 5.55373e-06 0.294209 10548.4 1 1.62399 0.180136
68 2 -0.000567421 4.81202e-06 0.288767 10542.8 1 1.624 0.180138
69 2 -0.000565465 4.04939e-06 0.282998 10536.9 1 1.62401 0.18014
70 2 -0.000562998 3.27501e-06 0.276973 10530.8 1 1.62402 0.180143
71 2 -0.000560021 2.49815e-06 0.270772 10524.4 1 1.62403 0.180146
72 2 -0.000556539 1.72803e-06 0.264473 10518 1 1.62404 0.180149
73 2 -0.000552564 9.73698e-07 0.25816 10511.5 1 1.62405 0.180152
74 2 -0.000548113 2.43865e-07 0.251914 10505.1 1 1.62406 0.180156
75 2 -0.000543208 -4.53186e-07 0.245816 10498.8 1 1.62407 0.180159
76 2 -0.000537874 -1.10974e-06 0.239946 10492.8 1 1.62408 0.180163
77 2 -0.000532143 -1.71873e-06 0.23438 10487.1 1 1.62409 0.180168
78 2 -0.000526048 -2.27388e-06 0.229189 10481.8 1 1.6241 0.180172
79 2 -0.000519628 -2.76972e-06 0.224439 10476.9 1 1.62411 0.180176
80 2 -0.000512923 -3.20172e-06 0.220188 10472.6 1 1.62412 0.180181
81 2 -0.000505973 -3.56629e-06 0.216489 10468.8 1 1.62413 0.180186
82 2 -0.000498823 -3.8609e-06 0.213385 10465.6 1 1.62413 0.18019
83 2 -0.000491516 -4.08401e-06 0.210912 10463.1 1 1.62414 0.180195
84 2 -0.000484096 -4.23518e-06 0.209093 10461.2 1 1.62415 0.1802
85 2 -0.000476606 -4.31502e-06 0.207946 10460 1 1.62415 0.180205
86 2 -0.000469089 -4.32523e-06 0.207475 10459.5 1 1.62416 0.180209
87 2 -0.000461584 -4.26851e-06 0.207677 10459.8 1 1.62417 0.180214
88 2 -0.000454128 -4.14857e-06 0.208536 10460.6 1 1.62417 0.180219
89 2 -0.000446757 -3.9701e-06 0.210027 10462.2 1 1.62418 0.180223
90 2 -0.0004395 -3.73863e-06 0.212118 10464.3 1 1.62418 0.180228
91 2 -0.000432384 -3.46055e-06 0.214764 10467 1 1.62419 0.180232
92 2 -0.000425433 -3.14295e-06 0.217914 10470.2 1 1.62419 0.180236
93 2 -0.000418662 -2.79354e-06 0.221508 10473.9 1 1.6242 0.18024
94 2 -0.000412085 -2.42054e-06 0.225481 10478 1 1.6242 0.180244
95 2 -0.000405709 -2.03259e-06 0.229759 10482.4 1 1.6242 0.180248
96 2 -0.000399535 -1.63855e-06 0.234265 10487 1 1.62421 0.180252
97 2 -0.000393559 -1.24743e-06 0.238919 10491.8 1 1.62421 0.180256
98 2 -0.000387771 -8.68221e-07 0.243638 10496.6 1 1.62421 0.180259
99 2 -0.000382158 -5.09747e-07 0.248337 10501.4 1 1.62422 0.180262
100 2 -0.000376699 -1.80535e-07 0.252932 10506.1 1 1.62422 0.180266
101 2 -0.00037137 1.11335e-07 0.257339 10510.6 1 1.62423 0.180269
102 2 -0.000366142 3.58362e-07 0.26148 10514.9 1 1.62423 0.180272
103 2 -0.000360982 5.53756e-07 0.265277 10518.8 1 1.62423 0.180276
104 2 -0.000355854 6.91558e-07 0.268659 10522.2 1 1.62424 0.180279
105 2 -0.000350719 7.66745e-07 0.271562 10525.2 1 1.62424 0.180282
106 2 -0.000345535 7.75323e-07 0.273929 10527.6 1 1.62425 0.180285
107 2 -0.00034026 7.14408e-07 0.275709 10529.5 1 1.62425 0.180289
108 2 -0.00033485 5.8228e-07 0.276863 10530.7 1 1.62425 0.180292
109 2 -0.000329263 3.78429e-07 0.27736 10531.2 1 1.62426 0.180296
110 2 -0.000323455 1.03572e-07 0.277179 10531 1 1.62427 0.1803
111 2 -0.000317386 -2.40338e-07 0.276311 10530.1 1 1.62427 0.180303
112 2 -0.000311017 -6.50137e-07 0.274753 10528.5 1 1.62428 0.180308
113 2 -0.000304312 -1.12148e-06 0.272518 10526.2 1 1.62428 0.180312
114 2 -0.000297241 -1.64889e-06 0.269626 10523.2 1 1.62429 0.180316
115 2 -0.000289775 -2.22585e-06 0.266107 10519.6 1 1.62429 0.180321
116 2 -0.000281893 -2.84483e-06 0.262001 10515.4 1 1.6243 0.180326
117 2 -0.000273579 -3.49747e-06 0.257356 10510.7 1 1.62431 0.180331
118 2 -0.00026482 -4.17459e-06 0.252228 10505.4 1 1.62431 0.180337
119 2 -0.000255615 -4.86638e-06 0.246681 10499.7 1 1.62432 0.180343
120 2 -0.000245964 -5.56248e-06 0.240783 10493.7 1 1.62432 0.180349
121 2 -0.00023588 -6.25212e-06 0.234608 10487.4 1 1.62433 0.180355
122 2 -0.000225378 -6.92424e-06 0.228234 10480.8 1 1.62434 0.180361
123 2 -0.000214483 -7.56761e-06 0.221741 10474.2 1 1.62434 0.180368
124 2 -0.000203227 -8.17099e-06 0.215209 10467.5 1 1.62435 0.180374
125 2 -0.00019165 -8.72319e-06 0.208721 10460.8 1 1.62435 0.180381
126 2 -0.000179797 -9.21329e-06 0.202356 10454.3 1 1.62436 0.180388
127 2 -0.000167724 -9.63064e-06 0.196192 10448 1 1.62436 0.180395
128 2 -0.000155489 -9.96508e-06 0.190302 10442 1 1.62437 0.180402
129 2 -0.00014316 -1.0207e-05 0.184756 10436.3 1 1.62437 0.18041
130 2 -0.00013081 -1.03473e-05 0.179617 10431 1 1.62437 0.180417
131 2 -0.000118517 -1.0378e-05 0.17494 10426.2 1 1.62438 0.180424
132 2 -0.000106364 -1.02916e-05 0.170774 10421.9 1 1.62438 0.18043
133 2 -9.44393e-05 -1.00817e-05 0.167158 10418.2 1 1.62438 0.180437
134 2 -8.28348e-05 -9.74313e-06 0.164122 10415.1 1 1.62438 0.180443
135 2 -7.16449e-05 -9.27163e-06 0.161685 10412.6 1 1.62438 0.18045
136 2 -6.09664e-05 -8.66447e-06 0.159854 10410.8 1 1.62439 0.180455
137 2 -5.08971e-05 -7.92037e-06 0.158627 10409.5 1 1.62439 0.180461
138 2 -4.15347e-05 -7.03985e-06 0.157986 10408.8 1 1.62439 0.180466
139 2 -3.2975e-05 -6.02562e-06 0.157907 10408.8 1 1.62439 0.18047
140 2 -2.531e-05 -4.88319e-06 0.158344 10409.2 1 1.62438 0.180474
141 2 -1.86245e-05 -3.62206e-06 0.159249 10410.1 1 1.62438 0.180478
142 2 -1.29925e-05 -2.25744e-06 0.160544 10411.5 1 1.62438 0.18048
143 2 -8.47048e-06 -8.13829e-07 0.162166 10413.1 1 1.62438 0.180483
144 2 -5.08574e-06 6.69493e-07 0.163977 10415 1 1.62438 0.180484
145 2 -2.80798e-06 2.12104e-06 0.165945 10417 1 1.62438 0.180485
146 2 -1.48347e-06 3.38386e-06 0.167732 10418.8 1 1.62438 0.180486
147 2 -7.81571e-07 4.04054e-06 0.169829 10421 1 1.62438 0.180486
148 2 -2.9897e-07 3.16375e-06 0.170926 10422.1 1 1.62438 0.180486
149 2 0 0 0.170926 10422.1 1 1.62438 0.180486
0 3 0 0 0.486328 10745.3 1 1.62351 0.18039
1 3 -1.68081e-06 9.88235e-06 0.486328 10745.3 1 1.62351 0.180389
2 3 -6.07623e-06 2.04548e-05 0.485845 10744.8 1 1.62351 0.180386
3 3 -1.52003e-05 3.00353e-05 0.485409 10744.3 1 1.62351 0.18038
4 3 -2.92539e-05 3.8724e-05 0.485101 10744 1 1.6235 0.180372
5 3 -4.78894e-05 4.64232e-05 0.484141 10743 1 1.6235 0.180361
6 3 -7.05872e-05 5.31101e-05 0.482985 10741.9 1 1.6235 0.180348
7 3 -9.67823e-05 5.87483e-05 0.481268 10740.1 1 1.6235 0.180334
8 3 -0.000125903 6.33341e-05 0.479013 10737.8 1 1.6235 0.180318
9 3 -0.000157387 6.68899e-05 0.476082 10734.8 1 1.6235 0.1803
10 3 -0.000190694 6.94592e-05 0.472449 10731.1 1 1.6235 0.180283
11 3 -0.000225303 7.10981e-05 0.468064 10726.6 1 1.62351 0.180264
12 3 -0.000260728 7.18712e-05 0.462918 10721.3 1 1.62351 0.180245
13 3 -0.000296514 7.18486e-05 0.457014 10715.3 1 1.62352 0.180227
14 3 -0.000332247 7.11045e-05 0.450379 10708.5 1 1.62352 0.180208
15 3 -0.000367552 6.9716e-05 0.443052 10700.9 1 1.62353 0.18019
16 3 -0.000402097 6.7762e-05 0.435092 10692.8 1 1.62354 0.180172
17 3 -0.00043559 6.53222e-05 0.426569 10684.1 1 1.62355 0.180155
18 3 -0.000467784 6.24764e-05 0.417567 10674.8 1 1.62356 0.180139
19 3 -0.000498474 5.93032e-05 0.408177 10665.2 1 1.62357 0.180124
20 3 -0.000527497 5.58792e-05 0.398499 10655.3 1 1.62358 0.180109
21 3 -0.000554729 5.22779e-05 0.388634 10645.2 1 1.62359 0.180096
22 3 -0.000580084 4.8569e-05 0.37869 10635 1 1.6236 0.180084
23 3 -0.000603514 4.48175e-05 0.36877 10624.8 1 1.62361 0.180073
24 3 -0.000625001 4.1083e-05 0.358978 10614.8 1 1.62362 0.180063
25 3 -0.00064456 3.74194e-05 0.349415 10605 1 1.62364 0.180054
26 3 -0.000662232 3.38741e-05 0.340172 10595.5 1 1.62365 0.180046
27 3 -0.000678081 3.04884e-05 0.331339 10586.5 1 1.62366 0.180039
28 3 -0.00069219 2.72966e-05 0.322992 10577.9 1 1.62367 0.180032
29 3 -0.000704661 2.43269e-05 0.315203 10569.9 1 1.62368 0.180027
30 3 -0.000715608 2.16009e-05 0.308031 10562.6 1 1.6237 0.180023
31 3 -0.000725153 1.91343e-05 0.301527 10555.9 1 1.62371 0.180019
32 3 -0.000733429 1.6937e-05 0.295729 10550 1 1.62372 0.180016
33 3 -0.000740568 1.50136e-05 0.290667 10544.8 1 1.62373 0.180013
34 3 -0.000746707 1.33635e-05 0.286357 10540.4 1 1.62374 0.180011
35 3 -0.000751979 1.19821e-05 0.282806 10536.7 1 1.62375 0.18001
36 3 -0.000756516 1.08606e-05 0.280011 10533.9 1 1.62376 0.180009
37 3 -0.000760443 9.98671e-06 0.277957 10531.8 1 1.62377 0.180008
38 3 -0.000763879 9.34507e-06 0.276619 10530.4 1 1.62378 0.180007
39 3 -0.000766933 8.91784e-06 0.275964 10529.7 1 1.62379 0.180006
40 3 -0.000769706 8.68504e-06 0.275949 10529.7 1 1.6238 0.180006
41 3 -0.000772288 8.62498e-06 0.276524 10530.3 1 1.62381 0.180005
42 3 -0.000774758 8.71472e-06 0.277631 10531.4 1 1.62382 0.180005
43 3 -0.000777184 8.93042e-06 0.279206 10533.1 1 1.62382 0.180004
44 3 -0.000779621 9.24773e-06 0.281178 10535.1 1 1.62383 0.180004
45 3 -0.000782113 9.64217e-06 0.283474 10537.4 1 1.62384 0.180003
46 3 -0.000784692 1.00894e-05 0.286016 10540 1 1.62385 0.180003
47 3 -0.000787377 1.05657e-05 0.288725 10542.8 1 1.62385 0.180002
48 3 -0.000790179 1.10481e-05 0.291519 10545.7 1 1.62386 0.180002
49 3 -0.000793096 1.15148e-05 0.29432 10548.5 1 1.62387 0.180001
50 3 -0.000796117 1.19453e-05 0.297047 10551.3 1 1.62388 0.18
51 3 -0.00079922 1.23208e-05 0.299625 10554 1 1.62388 0.179999
52 3 -0.000802379 1.26243e-05 0.301981 10556.4 1 1.62389 0.179998
53 3 -0.000805557 1.2841e-05 0.304048 10558.5 1 1.6239 0.179997