Title="LBM for phase change with fin"
dt=1 dx=1
VARIABLES="X","Y","U","V","T","H","fl","pa","Test"
ZONE T="BOX",I=150,J=150,F=POINT
0 0 0 0 -0.00137296 -1.40686 0 0.46531 0.0517011
1 0 0 0 -0.00137296 -1.40686 0 0.46531 0.0517011
2 0 0 0 -0.00137296 -1.40686 0 0.46531 0.0517011
3 0 0 0 -0.00137296 -1.40686 0 0.46531 0.0517011
4 0 0 0 -0.00137295 -1.40686 0 0.46531 0.0517011
5 0 0 0 -0.00137295 -1.40685 0 0.46531 0.0517011
6 0 0 0 -0.00137295 -1.40685 0 0.46531 0.0517011
7 0 0 0 -0.00137294 -1.40684 0 0.46531 0.0517011
8 0 0 0 -0.00137293 -1.40684 0 0.46531 0.0517011
9 0 0 0 -0.00137293 -1.40683 0 0.46531 0.0517011
10 0 0 0 -0.00137292 -1.40682 0 0.46531 0.0517011
11 0 0 0 -0.00137291 -1.40681 0 0.46531 0.0517011
12 0 0 0 -0.0013729 -1.40681 0 0.46531 0.0517011
13 0 0 0 -0.00137289 -1.4068 0 0.46531 0.0517011
14 0 0 0 -0.00137288 -1.40679 0 0.46531 0.0517011
15 0 0 0 -0.00137288 -1.40678 0 0.46531 0.0517011
16 0 0 0 -0.00137287 -1.40677 0 0.46531 0.0517011
17 0 0 0 -0.00137286 -1.40677 0 0.46531 0.0517011
18 0 0 0 -0.00137286 -1.40676 0 0.46531 0.0517011
19 0 0 0 -0.00137285 -1.40675 0 0.46531 0.0517011
20 0 0 0 -0.00137285 -1.40675 0 0.46531 0.0517011
21 0 0 0 -0.00137285 -1.40675 0 0.46531 0.0517011
22 0 0 0 -0.00137284 -1.40675 0 0.46531 0.0517011
23 0 0 0 -0.00137285 -1.40675 0 0.46531 0.0517011
24 0 0 0 -0.00137285 -1.40675 0 0.46531 0.0517011
25 0 0 0 -0.00137285 -1.40676 0 0.46531 0.0517011
26 0 0 0 -0.00137286 -1.40676 0 0.46531 0.0517011
27 0 0 0 -0.00137287 -1.40677 0 0.46531 0.0517011
28 0 0 0 -0.00137288 -1.40679 0 0.46531 0.0517011
29 0 0 0 -0.0013729 -1.4068 0 0.46531 0.0517011
30 0 0 0 -0.00137291 -1.40682 0 0.46531 0.0517011
31 0 0 0 -0.00137293 -1.40684 0 0.46531 0.0517011
32 0 0 0 -0.00137296 -1.40686 0 0.46531 0.0517011
33 0 0 0 -0.00137299 -1.40689 0 0.46531 0.0517011
34 0 0 0 -0.00137302 -1.40692 0 0.46531 0.0517011
35 0 0 0 -0.00137305 -1.40696 0 0.46531 0.0517011
36 0 0 0 -0.00137309 -1.40699 0 0.46531 0.0517011
37 0 0 0 -0.00137313 -1.40703 0 0.46531 0.0517011
38 0 0 0 -0.00137317 -1.40708 0 0.46531 0.0517011
39 0 0 0 -0.00137322 -1.40713 0 0.46531 0.0517011
40 0 0 0 -0.00137327 -1.40718 0 0.46531 0.0517011
41 0 0 0 -0.00137332 -1.40724 0 0.46531 0.0517011
42 0 0 0 -0.00137338 -1.4073 0 0.46531 0.0517011
43 0 0 0 -0.00137344 -1.40736 0 0.46531 0.0517011
44 0 0 0 -0.00137351 -1.40743 0 0.46531 0.0517011
45 0 0 0 -0.00137358 -1.4075 0 0.46531 0.0517011
46 0 0 0 -0.00137365 -1.40757 0 0.46531 0.0517011
47 0 0 0 -0.00137373 -1.40765 0 0.46531 0.0517011
48 0 0 0 -0.00137381 -1.40773 0 0.46531 0.0517011
49 0 0 0 -0.00137389 -1.40782 0 0.46531 0.0517011
50 0 0 0 -0.00137398 -1.40791 0 0.46531 0.0517011
51 0 0 0 -0.00137407 -1.40801 0 0.46531 0.0517011
52 0 0 0 -0.00137417 -1.40811 0 0.46531 0.0517011
53 0 0 0 -0.00137427 -1.40821 0 0.46531 0.0517011
54 0 0 0 -0.00137437 -1.40831 0 0.46531 0.0517011
55 0 0 0 -0.00137448 -1.40842 0 0.46531 0.0517011
56 0 0 0 -0.00137459 -1.40854 0 0.46531 0.0517011
57 0 0 0 -0.00137471 -1.40866 0 0.46531 0.0517011
58 0 0 0 -0.00137483 -1.40878 0 0.46531 0.0517011
59 0 0 0 -0.00137495 -1.4089 0 0.46531 0.0517011
60 0 0 0 -0.00137508 -1.40903 0 0.46531 0.0517011
61 0 0 0 -0.00137521 -1.40917 0 0.46531 0.0517011
62 0 0 0 -0.00137534 -1.40931 0 0.46531 0.0517011
63 0 0 0 -0.00137548 -1.40945 0 0.46531 0.0517011
64 0 0 0 -0.00137562 -1.40959 0 0.46531 0.0517011
65 0 0 0 -0.00137577 -1.40974 0 0.46531 0.0517011
66 0 0 0 -0.00137592 -1.4099 0 0.46531 0.0517011
67 0 0 0 -0.00137607 -1.41005 0 0.46531 0.0517011
68 0 0 0 -0.00137623 -1.41021 0 0.46531 0.0517011
69 0 0 0 -0.00137639 -1.41038 0 0.46531 0.0517011
70 0 0 0 -0.00137655 -1.41055 0 0.46531 0.0517011
71 0 0 0 -0.00137672 -1.41072 0 0.46531 0.0517011
72 0 0 0 -0.0013769 -1.4109 0 0.46531 0.0517011
73 0 0 0 -0.00137707 -1.41108 0 0.46531 0.0517011
74 0 0 0 -0.00137725 -1.41126 0 0.46531 0.0517011
75 0 0 0 -0.00137744 -1.41145 0 0.46531 0.0517011
76 0 0 0 -0.00137763 -1.41165 0 0.46531 0.0517011
77 0 0 0 -0.00137782 -1.41184 0 0.46531 0.0517011
78 0 0 0 -0.00137801 -1.41204 0 0.46531 0.0517011
79 0 0 0 -0.00137821 -1.41225 0 0.46531 0.0517011
80 0 0 0 -0.00137842 -1.41246 0 0.46531 0.0517011
81 0 0 0 -0.00137862 -1.41267 0 0.46531 0.0517011
82 0 0 0 -0.00137884 -1.41289 0 0.46531 0.0517011
83 0 0 0 -0.00137905 -1.41311 0 0.46531 0.0517011
84 0 0 0 -0.00137927 -1.41333 0 0.46531 0.0517011
85 0 0 0 -0.00137949 -1.41356 0 0.46531 0.0517011
86 0 0 0 -0.00137971 -1.41379 0 0.46531 0.0517011
87 0 0 0 -0.00137994 -1.41402 0 0.46531 0.0517011
88 0 0 0 -0.00138017 -1.41426 0 0.46531 0.0517011
89 0 0 0 -0.00138041 -1.4145 0 0.46531 0.0517011
90 0 0 0 -0.00138064 -1.41474 0 0.46531 0.0517011
91 0 0 0 -0.00138088 -1.41499 0 0.46531 0.0517011
92 0 0 0 -0.00138113 -1.41523 0 0.46531 0.0517011
93 0 0 0 -0.00138137 -1.41548 0 0.46531 0.0517011
94 0 0 0 -0.00138162 -1.41573 0 0.46531 0.0517011
95 0 0 0 -0.00138186 -1.41599 0 0.46531 0.0517011
96 0 0 0 -0.00138211 -1.41624 0 0.46531 0.0517011
97 0 0 0 -0.00138236 -1.4165 0 0.46531 0.0517011
98 0 0 0 -0.00138261 -1.41676 0 0.46531 0.0517011
99 0 0 0 -0.00138286 -1.41701 0 0.46531 0.0517011
100 0 0 0 -0.00138311 -1.41727 0 0.46531 0.0517011
101 0 0 0 -0.00138336 -1.41753 0 0.46531 0.0517011
102 0 0 0 -0.00138361 -1.41778 0 0.46531 0.0517011
103 0 0 0 -0.00138386 -1.41804 0 0.46531 0.0517011
104 0 0 0 -0.00138411 -1.41829 0 0.46531 0.0517011
105 0 0 0 -0.00138436 -1.41854 0 0.46531 0.0517011
106 0 0 0 -0.0013846 -1.41879 0 0.46531 0.0517011
107 0 0 0 -0.00138484 -1.41904 0 0.46531 0.0517011
108 0 0 0 -0.00138508 -1.41928 0 0.46531 0.0517011
109 0 0 0 -0.00138531 -1.41952 0 0.46531 0.0517011
110 0 0 0 -0.00138554 -1.41976 0 0.46531 0.0517011
111 0 0 0 -0.00138577 -1.41999 0 0.46531 0.0517011
112 0 0 0 -0.00138599 -1.42021 0 0.46531 0.0517011
113 0 0 0 -0.0013862 -1.42044 0 0.46531 0.0517011
114 0 0 0 -0.00138641 -1.42065 0 0.46531 0.0517011
115 0 0 0 -0.00138662 -1.42086 0 0.46531 0.0517011
116 0 0 0 -0.00138682 -1.42107 0 0.46531 0.0517011
117 0 0 0 -0.00138701 -1.42126 0 0.46531 0.0517012
118 0 0 0 -0.0013872 -1.42145 0 0.46531 0.0517012
119 0 0 0 -0.00138738 -1.42164 0 0.46531 0.0517012
120 0 0 0 -0.00138755 -1.42181 0 0.46531 0.0517012
121 0 0 0 -0.00138771 -1.42198 0 0.46531 0.0517012
122 0 0 0 -0.00138787 -1.42214 0 0.46531 0.0517012
123 0 0 0 -0.00138802 -1.4223 0 0.46531 0.0517012
124 0 0 0 -0.00138816 -1.42244 0 0.46531 0.0517012
125 0 0 0 -0.0013883 -1.42258 0 0.46531 0.0517012
126 0 0 0 -0.00138843 -1.42271 0 0.46531 0.0517012
127 0 0 0 -0.00138855 -1.42284 0 0.46531 0.0517012
128 0 0 0 -0.00138866 -1.42296 0 0.46531 0.0517012
129 0 0 0 -0.00138877 -1.42306 0 0.46531 0.0517012
130 0 0 0 -0.00138887 -1.42317 0 0.46531 0.0517012
131 0 0 0 -0.00138896 -1.42326 0 0.46531 0.0517012
132 0 0 0 -0.00138905 -1.42335 0 0.46531 0.0517012
133 0 0 0 -0.00138913 -1.42343 0 0.46531 0.0517012
134 0 0 0 -0.0013892 -1.4235 0 0.46531 0.0517012
135 0 0 0 -0.00138927 -1.42357 0 0.46531 0.0517012
136 0 0 0 -0.00138933 -1.42364 0 0.46531 0.0517012
137 0 0 0 -0.00138938 -1.42369 0 0.46531 0.0517012
138 0 0 0 -0.00138943 -1.42374 0 0.46531 0.0517012
139 0 0 0 -0.00138947 -1.42379 0 0.46531 0.0517012
140 0 0 0 -0.00138951 -1.42383 0 0.46531 0.0517012
141 0 0 0 -0.00138955 -1.42386 0 0.46531 0.0517012
142 0 0 0 -0.00138958 -1.42389 0 0.46531 0.0517012
143 0 0 0 -0.0013896 -1.42392 0 0.46531 0.0517012
144 0 0 0 -0.00138962 -1.42394 0 0.46531 0.0517012
145 0 0 0 -0.00138963 -1.42395 0 0.46531 0.0517012
146 0 0 0 -0.00138965 -1.42396 0 0.46531 0.0517012
147 0 0 0 -0.00138965 -1.42397 0 0.46531 0.0517012
148 0 0 0 -0.00138965 -1.42397 0 0.46531 0.0517012
149 0 0 0 -0.00138965 -1.42397 0 0.46531 0.0517012
0 1 0 0 -0.00137296 -1.40686 0 0.46531 0.0517011
1 1 0 0 -0.00137296 -1.40686 0 0.46531 0.0517011
2 1 0 0 -0.00137296 -1.40686 0 0.46531 0.0517011
3 1 0 0 -0.00137296 -1.40686 0 0.46531 0.0517011
4 1 0 0 -0.00137295 -1.40686 0 0.46531 0.0517011
5 1 0 0 -0.00137295 -1.40686 0 0.46531 0.0517011
6 1 0 0 -0.00137295 -1.40685 0 0.46531 0.0517011
7 1 0 0 -0.00137294 -1.40684 0 0.46531 0.0517011
8 1 0 0 -0.00137293 -1.40684 0 0.46531 0.0517011
9 1 0 0 -0.00137293 -1.40683 0 0.46531 0.0517011
10 1 0 0 -0.00137292 -1.40682 0 0.46531 0.0517011
11 1 0 0 -0.00137291 -1.40681 0 0.46531 0.0517011
12 1 0 0 -0.0013729 -1.40681 0 0.46531 0.0517011
13 1 0 0 -0.00137289 -1.4068 0 0.46531 0.0517011
14 1 0 0 -0.00137289 -1.40679 0 0.46531 0.0517011
15 1 0 0 -0.00137288 -1.40678 0 0.46531 0.0517011
16 1 0 0 -0.00137287 -1.40677 0 0.46531 0.0517011
17 1 0 0 -0.00137286 -1.40677 0 0.46531 0.0517011
18 1 0 0 -0.00137286 -1.40676 0 0.46531 0.0517011
19 1 0 0 -0.00137285 -1.40675 0 0.46531 0.0517011
20 1 0 0 -0.00137285 -1.40675 0 0.46531 0.0517011
21 1 0 0 -0.00137285 -1.40675 0 0.46531 0.0517011
22 1 0 0 -0.00137284 -1.40675 0 0.46531 0.0517011
23 1 0 0 -0.00137285 -1.40675 0 0.46531 0.0517011
24 1 0 0 -0.00137285 -1.40675 0 0.46531 0.0517011
25 1 0 0 -0.00137285 -1.40676 0 0.46531 0.0517011
26 1 0 0 -0.00137286 -1.40676 0 0.46531 0.0517011
27 1 0 0 -0.00137287 -1.40677 0 0.46531 0.0517011
28 1 0 0 -0.00137288 -1.40679 0 0.46531 0.0517011
29 1 0 0 -0.0013729 -1.4068 0 0.46531 0.0517011
30 1 0 0 -0.00137291 -1.40682 0 0.46531 0.0517011
31 1 0 0 -0.00137293 -1.40684 0 0.46531 0.0517011
32 1 0 0 -0.00137296 -1.40686 0 0.46531 0.0517011
33 1 0 0 -0.00137299 -1.40689 0 0.46531 0.0517011
34 1 0 0 -0.00137302 -1.40692 0 0.46531 0.0517011
35 1 0 0 -0.00137305 -1.40696 0 0.46531 0.0517011
36 1 0 0 -0.00137309 -1.40699 0 0.46531 0.0517011
37 1 0 0 -0.00137313 -1.40703 0 0.46531 0.0517011
38 1 0 0 -0.00137317 -1.40708 0 0.46531 0.0517011
39 1 0 0 -0.00137322 -1.40713 0 0.46531 0.0517011
40 1 0 0 -0.00137327 -1.40718 0 0.46531 0.0517011
41 1 0 0 -0.00137332 -1.40724 0 0.46531 0.0517011
42 1 0 0 -0.00137338 -1.4073 0 0.46531 0.0517011
43 1 0 0 -0.00137344 -1.40736 0 0.46531 0.0517011
44 1 0 0 -0.00137351 -1.40743 0 0.46531 0.0517011
45 1 0 0 -0.00137358 -1.4075 0 0.46531 0.0517011
46 1 0 0 -0.00137365 -1.40757 0 0.46531 0.0517011
47 1 0 0 -0.00137373 -1.40765 0 0.46531 0.0517011
48 1 0 0 -0.00137381 -1.40773 0 0.46531 0.0517011
49 1 0 0 -0.00137389 -1.40782 0 0.46531 0.0517011
50 1 0 0 -0.00137398 -1.40791 0 0.46531 0.0517011
51 1 0 0 -0.00137407 -1.40801 0 0.46531 0.0517011
52 1 0 0 -0.00137417 -1.40811 0 0.46531 0.0517011
53 1 0 0 -0.00137427 -1.40821 0 0.46531 0.0517011
54 1 0 0 -0.00137437 -1.40831 0 0.46531 0.0517011
55 1 0 0 -0.00137448 -1.40842 0 0.46531 0.0517011
56 1 0 0 -0.00137459 -1.40854 0 0.46531 0.0517011
57 1 0 0 -0.00137471 -1.40866 0 0.46531 0.0517011
58 1 0 0 -0.00137483 -1.40878 0 0.46531 0.0517011
59 1 0 0 -0.00137495 -1.4089 0 0.46531 0.0517011
60 1 0 0 -0.00137508 -1.40903 0 0.46531 0.0517011
61 1 0 0 -0.00137521 -1.40917 0 0.46531 0.0517011
62 1 0 0 -0.00137534 -1.40931 0 0.46531 0.0517011
63 1 0 0 -0.00137548 -1.40945 0 0.46531 0.0517011
64 1 0 0 -0.00137562 -1.40959 0 0.46531 0.0517011
65 1 0 0 -0.00137577 -1.40974 0 0.46531 0.0517011
66 1 0 0 -0.00137592 -1.4099 0 0.46531 0.0517011
67 1 0 0 -0.00137607 -1.41005 0 0.46531 0.0517011
68 1 0 0 -0.00137623 -1.41021 0 0.46531 0.0517011
69 1 0 0 -0.00137639 -1.41038 0 0.46531 0.0517011
70 1 0 0 -0.00137655 -1.41055 0 0.46531 0.0517011
71 1 0 0 -0.00137672 -1.41072 0 0.46531 0.0517011
72 1 0 0 -0.0013769 -1.4109 0 0.46531 0.0517011
73 1 0 0 -0.00137707 -1.41108 0 0.46531 0.0517011
74 1 0 0 -0.00137725 -1.41126 0 0.46531 0.0517011
75 1 0 0 -0.00137744 -1.41145 0 0.46531 0.0517011
76 1 0 0 -0.00137763 -1.41165 0 0.46531 0.0517011
77 1 0 0 -0.00137782 -1.41184 0 0.46531 0.0517011
78 1 0 0 -0.00137801 -1.41204 0 0.46531 0.0517011
79 1 0 0 -0.00137821 -1.41225 0 0.46531 0.0517011
80 1 0 0 -0.00137842 -1.41246 0 0.46531 0.0517011
81 1 0 0 -0.00137862 -1.41267 0 0.46531 0.0517011
82 1 0 0 -0.00137883 -1.41289 0 0.46531 0.0517011
83 1 0 0 -0.00137905 -1.4131 0 0.46531 0.0517011
84 1 0 0 -0.00137927 -1.41333 0 0.46531 0.0517011
85 1 0 0 -0.00137949 -1.41356 0 0.46531 0.0517011
86 1 0 0 -0.00137971 -1.41379 0 0.46531 0.0517011
87 1 0 0 -0.00137994 -1.41402 0 0.46531 0.0517011
88 1 0 0 -0.00138017 -1.41426 0 0.46531 0.0517011
89 1 0 0 -0.00138041 -1.4145 0 0.46531 0.0517011
90 1 0 0 -0.00138064 -1.41474 0 0.46531 0.0517011
91 1 0 0 -0.00138088 -1.41498 0 0.46531 0.0517011
92 1 0 0 -0.00138112 -1.41523 0 0.46531 0.0517011
93 1 0 0 -0.00138137 -1.41548 0 0.46531 0.0517011
94 1 0 0 -0.00138161 -1.41573 0 0.46531 0.0517011
95 1 0 0 -0.00138186 -1.41599 0 0.46531 0.0517011
96 1 0 0 -0.00138211 -1.41624 0 0.46531 0.0517011
97 1 0 0 -0.00138236 -1.4165 0 0.46531 0.0517011
98 1 0 0 -0.00138261 -1.41675 0 0.46531 0.0517011
99 1 0 0 -0.00138286 -1.41701 0 0.46531 0.0517011
100 1 0 0 -0.00138311 -1.41727 0 0.46531 0.0517011
101 1 0 0 -0.00138336 -1.41753 0 0.46531 0.0517011
102 1 0 0 -0.00138361 -1.41778 0 0.46531 0.0517011
103 1 0 0 -0.00138386 -1.41804 0 0.46531 0.0517011
104 1 0 0 -0.00138411 -1.41829 0 0.46531 0.0517011
105 1 0 0 -0.00138435 -1.41854 0 0.46531 0.0517011
106 1 0 0 -0.0013846 -1.41879 0 0.46531 0.0517011
107 1 0 0 -0.00138484 -1.41904 0 0.46531 0.0517011
108 1 0 0 -0.00138508 -1.41928 0 0.46531 0.0517011
109 1 0 0 -0.00138531 -1.41952 0 0.46531 0.0517011
110 1 0 0 -0.00138554 -1.41976 0 0.46531 0.0517011
111 1 0 0 -0.00138576 -1.41999 0 0.46531 0.0517011
112 1 0 0 -0.00138599 -1.42021 0 0.46531 0.0517011
113 1 0 0 -0.0013862 -1.42043 0 0.46531 0.0517011
114 1 0 0 -0.00138641 -1.42065 0 0.46531 0.0517011
115 1 0 0 -0.00138662 -1.42086 0 0.46531 0.0517011
116 1 0 0 -0.00138682 -1.42106 0 0.46531 0.0517011
117 1 0 0 -0.00138701 -1.42126 0 0.46531 0.0517012
118 1 0 0 -0.00138719 -1.42145 0 0.46531 0.0517012
119 1 0 0 -0.00138737 -1.42163 0 0.46531 0.0517012
120 1 0 0 -0.00138754 -1.42181 0 0.46531 0.0517012
121 1 0 0 -0.00138771 -1.42198 0 0.46531 0.0517012
122 1 0 0 -0.00138787 -1.42214 0 0.46531 0.0517012
123 1 0 0 -0.00138802 -1.4223 0 0.46531 0.0517012
124 1 0 0 -0.00138816 -1.42244 0 0.46531 0.0517012
125 1 0 0 -0.0013883 -1.42258 0 0.46531 0.0517012
126 1 0 0 -0.00138843 -1.42271 0 0.46531 0.0517012
127 1 0 0 -0.00138855 -1.42284 0 0.46531 0.0517012
128 1 0 0 -0.00138866 -1.42295 0 0.46531 0.0517012
129 1 0 0 -0.00138877 -1.42306 0 0.46531 0.0517012
130 1 0 0 -0.00138887 -1.42316 0 0.46531 0.0517012
131 1 0 0 -0.00138896 -1.42326 0 0.46531 0.0517012
132 1 0 0 -0.00138904 -1.42335 0 0.46531 0.0517012
133 1 0 0 -0.00138912 -1.42343 0 0.46531 0.0517012
134 1 0 0 -0.0013892 -1.4235 0 0.46531 0.0517012
135 1 0 0 -0.00138926 -1.42357 0 0.46531 0.0517012
136 1 0 0 -0.00138932 -1.42363 0 0.46531 0.0517012
137 1 0 0 -0.00138938 -1.42369 0 0.46531 0.0517012
138 1 0 0 -0.00138943 -1.42374 0 0.46531 0.0517012
139 1 0 0 -0.00138947 -1.42378 0 0.46531 0.0517012
140 1 0 0 -0.00138951 -1.42382 0 0.46531 0.0517012
141 1 0 0 -0.00138954 -1.42386 0 0.46531 0.0517012
142 1 0 0 -0.00138957 -1.42389 0 0.46531 0.0517012
143 1 0 0 -0.0013896 -1.42391 0 0.46531 0.0517012
144 1 0 0 -0.00138962 -1.42393 0 0.46531 0.0517012
145 1 0 0 -0.00138963 -1.42395 0 0.46531 0.0517012
146 1 0 0 -0.00138964 -1.42396 0 0.46531 0.0517012
147 1 0 0 -0.00138965 -1.42397 0 0.46531 0.0517012
148 1 0 0 -0.00138965 -1.42397 0 0.46531 0.0517012
149 1 0 0 -0.00138965 -1.42397 0 0.46531 0.0517012
0 2 0 0 -0.00137296 -1.40687 0 0.46531 0.0517011
1 2 0 0 -0.00137296 -1.40687 0 0.465309 0.0517011
2 2 0 0 -0.00137296 -1.40687 0 0.465309 0.0517011
3 2 0 0 -0.00137296 -1.40687 0 0.465309 0.0517011
4 2 0 0 -0.00137296 -1.40686 0 0.465309 0.0517011
5 2 0 0 -0.00137295 -1.40686 0 0.465309 0.0517011
6 2 0 0 -0.00137295 -1.40685 0 0.465309 0.0517011
7 2 0 0 -0.00137294 -1.40685 0 0.465309 0.0517011
8 2 0 0 -0.00137294 -1.40684 0 0.465309 0.0517011
9 2 0 0 -0.00137293 -1.40683 0 0.465309 0.0517011
10 2 0 0 -0.00137292 -1.40683 0 0.465309 0.0517011
11 2 0 0 -0.00137291 -1.40682 0 0.465309 0.0517011
12 2 0 0 -0.00137291 -1.40681 0 0.465309 0.0517011
13 2 0 0 -0.0013729 -1.4068 0 0.465309 0.0517011
14 2 0 0 -0.00137289 -1.40679 0 0.465309 0.0517011
15 2 0 0 -0.00137288 -1.40678 0 0.465309 0.0517011
16 2 0 0 -0.00137287 -1.40678 0 0.465309 0.0517011
17 2 0 0 -0.00137287 -1.40677 0 0.465309 0.0517011
18 2 0 0 -0.00137286 -1.40676 0 0.465309 0.0517011
19 2 0 0 -0.00137285 -1.40676 0 0.465309 0.0517011
20 2 0 0 -0.00137285 -1.40675 0 0.465309 0.0517011
21 2 0 0 -0.00137285 -1.40675 0 0.465309 0.0517011
22 2 0 0 -0.00137285 -1.40675 0 0.465309 0.0517011
23 2 0 0 -0.00137285 -1.40675 0 0.465309 0.0517011
24 2 0 0 -0.00137285 -1.40675 0 0.465309 0.0517011
25 2 0 0 -0.00137285 -1.40676 0 0.465309 0.0517011
26 2 0 0 -0.00137286 -1.40676 0 0.465309 0.0517011
27 2 0 0 -0.00137287 -1.40677 0 0.465309 0.0517011
28 2 0 0 -0.00137288 -1.40678 0 0.465309 0.0517011
29 2 0 0 -0.0013729 -1.4068 0 0.465309 0.0517011
30 2 0 0 -0.00137291 -1.40682 0 0.465309 0.0517011
31 2 0 0 -0.00137293 -1.40684 0 0.465309 0.0517011
32 2 0 0 -0.00137296 -1.40686 0 0.465309 0.0517011
33 2 0 0 -0.00137298 -1.40689 0 0.465309 0.0517011
34 2 0 0 -0.00137301 -1.40692 0 0.465309 0.0517011
35 2 0 0 -0.00137304 -1.40695 0 0.465309 0.0517011
36 2 0 0 -0.00137308 -1.40699 0 0.465309 0.0517011
37 2 0 0 -0.00137312 -1.40703 0 0.465309 0.0517011
38 2 0 0 -0.00137316 -1.40707 0 0.465309 0.0517011
39 2 0 0 -0.00137321 -1.40712 0 0.465309 0.0517011
40 2 0 0 -0.00137326 -1.40717 0 0.465309 0.0517011
41 2 0 0 -0.00137331 -1.40723 0 0.465309 0.0517011
42 2 0 0 -0.00137337 -1.40729 0 0.465309 0.0517011
43 2 0 0 -0.00137343 -1.40735 0 0.465309 0.0517011
44 2 0 0 -0.0013735 -1.40742 0 0.465309 0.0517011
45 2 0 0 -0.00137357 -1.40749 0 0.465309 0.0517011
46 2 0 0 -0.00137364 -1.40756 0 0.465309 0.0517011
47 2 0 0 -0.00137372 -1.40764 0 0.46531 0.0517011
48 2 0 0 -0.0013738 -1.40772 0 0.46531 0.0517011
49 2 0 0 -0.00137388 -1.40781 0 0.46531 0.0517011
50 2 0 0 -0.00137397 -1.4079 0 0.46531 0.0517011
51 2 0 0 -0.00137406 -1.40799 0 0.46531 0.0517011
52 2 0 0 -0.00137416 -1.40809 0 0.46531 0.0517011
53 2 0 0 -0.00137426 -1.40819 0 0.46531 0.0517011
54 2 0 0 -0.00137436 -1.4083 0 0.46531 0.0517011
55 2 0 0 -0.00137447 -1.40841 0 0.46531 0.0517011
56 2 0 0 -0.00137458 -1.40852 0 0.46531 0.0517011
57 2 0 0 -0.00137469 -1.40864 0 0.46531 0.0517011
58 2 0 0 -0.00137481 -1.40876 0 0.46531 0.0517011
59 2 0 0 -0.00137493 -1.40889 0 0.46531 0.0517011
60 2 0 0 -0.00137506 -1.40901 0 0.46531 0.0517011
61 2 0 0 -0.00137519 -1.40915 0 0.46531 0.0517011
62 2 0 0 -0.00137532 -1.40928 0 0.46531 0.0517011
63 2 0 0 -0.00137546 -1.40942 0 0.46531 0.0517011
64 2 0 0 -0.0013756 -1.40957 0 0.46531 0.0517011
65 2 0 0 -0.00137574 -1.40972 0 0.46531 0.0517011
66 2 0 0 -0.00137589 -1.40987 0 0.46531 0.0517011
67 2 0 0 -0.00137604 -1.41003 0 0.46531 0.0517011
68 2 0 0 -0.0013762 -1.41019 0 0.46531 0.0517011
69 2 0 0 -0.00137636 -1.41035 0 0.46531 0.0517011
70 2 0 0 -0.00137652 -1.41052 0 0.46531 0.0517011
71 2 0 0 -0.00137669 -1.41069 0 0.46531 0.0517011
72 2 0 0 -0.00137686 -1.41087 0 0.46531 0.0517011
73 2 0 0 -0.00137704 -1.41105 0 0.46531 0.0517011
74 2 0 0 -0.00137722 -1.41123 0 0.46531 0.0517011
75 2 0 0 -0.0013774 -1.41142 0 0.46531 0.0517011
76 2 0 0 -0.00137759 -1.41161 0 0.46531 0.0517011
77 2 0 0 -0.00137778 -1.41181 0 0.46531 0.0517011
78 2 0 0 -0.00137798 -1.41201 0 0.46531 0.0517011
79 2 0 0 -0.00137817 -1.41221 0 0.46531 0.0517011
80 2 0 0 -0.00137838 -1.41242 0 0.46531 0.0517011
81 2 0 0 -0.00137858 -1.41263 0 0.46531 0.0517011
82 2 0 0 -0.00137879 -1.41284 0 0.46531 0.0517011
83 2 0 0 -0.00137901 -1.41306 0 0.46531 0.0517011
84 2 0 0 -0.00137922 -1.41328 0 0.46531 0.0517011
85 2 0 0 -0.00137944 -1.41351 0 0.46531 0.0517011
86 2 0 0 -0.00137967 -1.41374 0 0.46531 0.0517011
87 2 0 0 -0.00137989 -1.41397 0 0.46531 0.0517011
88 2 0 0 -0.00138012 -1.41421 0 0.46531 0.0517011
89 2 0 0 -0.00138036 -1.41444 0 0.46531 0.0517011
90 2 0 0 -0.00138059 -1.41469 0 0.46531 0.0517011
91 2 0 0 -0.00138083 -1.41493 0 0.46531 0.0517011
92 2 0 0 -0.00138107 -1.41518 0 0.46531 0.0517011
93 2 0 0 -0.00138131 -1.41543 0 0.46531 0.0517011
94 2 0 0 -0.00138156 -1.41568 0 0.46531 0.0517011
95 2 0 0 -0.0013818 -1.41593 0 0.46531 0.0517011
96 2 0 0 -0.00138205 -1.41618 0 0.46531 0.0517011
97 2 0 0 -0.0013823 -1.41644 0 0.46531 0.0517011
98 2 0 0 -0.00138255 -1.41669 0 0.46531 0.0517011
99 2 0 0 -0.0013828 -1.41695 0 0.46531 0.0517011
100 2 0 0 -0.00138305 -1.4172 0 0.46531 0.0517011
101 2 0 0 -0.0013833 -1.41746 0 0.46531 0.0517011
102 2 0 0 -0.00138355 -1.41771 0 0.46531 0.0517011
103 2 0 0 -0.0013838 -1.41797 0 0.46531 0.0517011
104 2 0 0 -0.00138404 -1.41822 0 0.46531 0.0517011
105 2 0 0 -0.00138429 -1.41847 0 0.46531 0.0517011
106 2 0 0 -0.00138453 -1.41872 0 0.46531 0.0517011
107 2 0 0 -0.00138477 -1.41896 0 0.46531 0.0517011
108 2 0 0 -0.001385 -1.41921 0 0.46531 0.0517011
109 2 0 0 -0.00138524 -1.41945 0 0.46531 0.0517011
110 2 0 0 -0.00138547 -1.41968 0 0.46531 0.0517011
111 2 0 0 -0.00138569 -1.41991 0 0.46531 0.0517011
112 2 0 0 -0.00138591 -1.42014 0 0.46531 0.0517011
113 2 0 0 -0.00138613 -1.42036 0 0.46531 0.0517011
114 2 0 0 -0.00138633 -1.42057 0 0.46531 0.0517011
115 2 0 0 -0.00138654 -1.42078 0 0.46531 0.0517011
116 2 0 0 -0.00138674 -1.42098 0 0.46531 0.0517011
117 2 0 0 -0.00138693 -1.42118 0 0.46531 0.0517011
118 2 0 0 -0.00138711 -1.42137 0 0.46531 0.0517011
119 2 0 0 -0.00138729 -1.42155 0 0.46531 0.0517011
120 2 0 0 -0.00138746 -1.42173 0 0.46531 0.0517011
121 2 0 0 -0.00138763 -1.4219 0 0.46531 0.0517011
122 2 0 0 -0.00138779 -1.42206 0 0.46531 0.0517011
123 2 0 0 -0.00138794 -1.42221 0 0.46531 0.0517011
124 2 0 0 -0.00138808 -1.42236 0 0.46531 0.0517011
125 2 0 0 -0.00138821 -1.4225 0 0.46531 0.0517011
126 2 0 0 -0.00138834 -1.42263 0 0.46531 0.0517011
127 2 0 0 -0.00138846 -1.42275 0 0.46531 0.0517011
128 2 0 0 -0.00138858 -1.42287 0 0.46531 0.0517011
129 2 0 0 -0.00138868 -1.42297 0 0.46531 0.0517011
130 2 0 0 -0.00138878 -1.42308 0 0.46531 0.0517011
131 2 0 0 -0.00138887 -1.42317 0 0.46531 0.0517011
132 2 0 0 -0.00138896 -1.42326 0 0.46531 0.0517011
133 2 0 0 -0.00138904 -1.42334 0 0.46531 0.0517011
134 2 0 0 -0.00138911 -1.42341 0 0.46531 0.0517011
135 2 0 0 -0.00138918 -1.42348 0 0.46531 0.0517011
136 2 0 0 -0.00138924 -1.42354 0 0.46531 0.0517011
137 2 0 0 -0.00138929 -1.4236 0 0.46531 0.0517011
138 2 0 0 -0.00138934 -1.42365 0 0.46531 0.0517011
139 2 0 0 -0.00138938 -1.4237 0 0.46531 0.0517011
140 2 0 0 -0.00138942 -1.42374 0 0.46531 0.0517011
141 2 0 0 -0.00138946 -1.42377 0 0.46531 0.0517011
142 2 0 0 -0.00138949 -1.4238 0 0.46531 0.0517011
143 2 0 0 -0.00138951 -1.42382 0 0.46531 0.0517011
144 2 0 0 -0.00138953 -1.42384 0 0.46531 0.0517011
145 2 0 0 -0.00138955 -1.42386 0 0.46531 0.0517011
146 2 0 0 -0.00138956 -1.42387 0 0.46531 0.0517011
147 2 0 0 -0.00138956 -1.42388 0 0.46531 0.0517011
148 2 0 0 -0.00138956 -1.42388 0 0.46531 0.0517011
149 2 0 0 -0.00138957 -1.42388 0 0.46531 0.0517011
0 3 0 0 -0.00137298 -1.40688 0 0.465309 0.051701
1 3 0 0 -0.00137298 -1.40688 0 0.465309 0.051701
2 3 0 0 -0.00137298 -1.40688 0 0.465309 0.051701
3 3 0 0 -0.00137298 -1.40688 0 0.465309 0.051701
4 3 0 0 -0.00137297 -1.40688 0 0.465309 0.051701
5 3 0 0 -0.00137297 -1.40687 0 0.465309 0.051701
6 3 0 0 -0.00137296 -1.40687 0 0.465309 0.051701
7 3 0 0 -0.00137296 -1.40686 0 0.465309 0.051701
8 3 0 0 -0.00137295 -1.40686 0 0.465309 0.051701
9 3 0 0 -0.00137294 -1.40685 0 0.465309 0.051701
10 3 0 0 -0.00137293 -1.40684 0 0.465309 0.051701
11 3 0 0 -0.00137293 -1.40683 0 0.465309 0.051701
12 3 0 0 -0.00137292 -1.40682 0 0.465309 0.051701
13 3 0 0 -0.00137291 -1.40681 0 0.465309 0.051701
14 3 0 0 -0.0013729 -1.4068 0 0.465309 0.051701
15 3 0 0 -0.00137289 -1.40679 0 0.465309 0.051701
16 3 0 0 -0.00137288 -1.40678 0 0.465309 0.051701
17 3 0 0 -0.00137287 -1.40678 0 0.465309 0.051701
18 3 0 0 -0.00137287 -1.40677 0 0.465309 0.051701
19 3 0 0 -0.00137286 -1.40676 0 0.465309 0.051701
20 3 0 0 -0.00137285 -1.40676 0 0.465309 0.051701
21 3 0 0 -0.00137285 -1.40675 0 0.465309 0.051701
22 3 0 0 -0.00137285 -1.40675 0 0.465309 0.051701
23 3 0 0 -0.00137285 -1.40675 0 0.465309 0.051701
24 3 0 0 -0.00137285 -1.40675 0 0.465309 0.051701
25 3 0 0 -0.00137285 -1.40676 0 0.465309 0.051701
26 3 0 0 -0.00137286 -1.40676 0 0.465309 0.051701
27 3 0 0 -0.00137287 -1.40677 0 0.465309 0.051701
28 3 0 0 -0.00137288 -1.40678 0 0.465309 0.051701
29 3 0 0 -0.00137289 -1.4068 0 0.465309 0.051701
30 3 0 0 -0.00137291 -1.40681 0 0.465309 0.051701
31 3 0 0 -0.00137293 -1.40683 0 0.465309 0.051701
32 3 0 0 -0.00137295 -1.40685 0 0.465309 0.051701
33 3 0 0 -0.00137297 -1.40688 0 0.465309 0.051701
34 3 0 0 -0.001373 -1.40691 0 0.465309 0.051701
35 3 0 0 -0.00137303 -1.40694 0 0.465309 0.051701
36 3 0 0 -0.00137307 -1.40698 0 0.465309 0.051701
37 3 0 0 -0.00137311 -1.40702 0 0.465309 0.051701
38 3 0 0 -0.00137315 -1.40706 0 0.465309 0.051701
39 3 0 0 -0.00137319 -1.40711 0 0.465309 0.051701
40 3 0 0 -0.00137324 -1.40716 0 0.465309 0.051701
41 3 0 0 -0.0013733 -1.40721 0 0.465309 0.051701
42 3 0 0 -0.00137335 -1.40727 0 0.465309 0.051701
43 3 0 0 -0.00137341 -1.40733 0 0.465309 0.051701
44 3 0 0 -0.00137348 -1.40739 0 0.465309 0.051701
45 3 0 0 -0.00137354 -1.40746 0 0.465309 0.051701
46 3 0 0 -0.00137361 -1.40753 0 0.465309 0.051701
47 3 0 0 -0.00137369 -1.40761 0 0.465309 0.051701
48 3 0 0 -0.00137377 -1.40769 0 0.465309 0.051701
49 3 0 0 -0.00137385 -1.40778 0 0.465309 0.051701
50 3 0 0 -0.00137393 -1.40786 0 0.465309 0.051701
51 3 0 0 -0.00137402 -1.40796 0 0.465309 0.051701
52 3 0 0 -0.00137412 -1.40805 0 0.465309 0.051701
53 3 0 0 -0.00137422 -1.40815 0 0.465309 0.051701
54 3 0 0 -0.00137432 -1.40826 0 0.465309 0.051701
55 3 0 0 -0.00137442 -1.40836 0 0.465309 0.051701
56 3 0 0 -0.00137453 -1.40847 0 0.465309 0.051701
57 3 0 0 -0.00137464 -1.40859 0 0.465309 0.051701
58 3 0 0 -0.00137476 -1.40871 0 0.465309 0.051701
59 3 0 0 -0.00137488 -1.40883 0 0.465309 0.051701
60 3 0 0 -0.001375 -1.40896 0 0.465309 0.051701
61 3 0 0 -0.00137513 -1.40909 0 0.465309 0.051701
62 3 0 0 -0.00137526 -1.40922 0 0.465309 0.051701
63 3 0 0 -0.00137539 -1.40936 0 0.465309 0.051701
64 3 0 0 -0.00137553 -1.4095 0 0.465309 0.051701
65 3 0 0 -0.00137568 -1.40965 0 0.465309 0.051701
66 3 0 0 -0.00137582 -1.4098 0 0.465309 0.051701
67 3 0 0 -0.00137597 -1.40995 0 0.465309 0.051701
68 3 0 0 -0.00137612 -1.41011 0 0.465309 0.051701
69 3 0 0 -0.00137628 -1.41027 0 0.465309 0.051701
70 3 0 0 -0.00137644 -1.41043 0 0.465309 0.051701
71 3 0 0 -0.00137661 -1.4106 0 0.465309 0.051701
72 3 0 0 -0.00137678 -1.41078 0 0.465309 0.051701
73 3 0 0 -0.00137695 -1.41095 0 0.465309 0.051701
74 3 0 0 -0.00137713 -1.41114 0 0.465309 0.051701
75 3 0 0 -0.00137731 -1.41132 0 0.465309 0.051701
76 3 0 0 -0.00137749 -1.41151 0 0.465309 0.051701
77 3 0 0 -0.00137768 -1.4117 0 0.465309 0.051701
78 3 0 0 -0.00137787 -1.4119 0 0.465309 0.051701
79 3 0 0 -0.00137807 -1.4121 0 0.465309 0.051701
80 3 0 0 -0.00137827 -1.4123 0 0.465309 0.051701
81 3 0 0 -0.00137847 -1.41251 0 0.465309 0.051701
82 3 0 0 -0.00137868 -1.41272 0 0.465309 0.051701
83 3 0 0 -0.00137889 -1.41294 0 0.465309 0.051701
84 3 0 0 -0.0013791 -1.41316 0 0.465309 0.051701
85 3 0 0 -0.00137932 -1.41338 0 0.465309 0.051701
86 3 0 0 -0.00137954 -1.4136 0 0.465309 0.051701
87 3 0 0 -0.00137976 -1.41383 0 0.465309 0.051701
88 3 0 0 -0.00137999 -1.41406 0 0.465309 0.051701
89 3 0 0 -0.00138022 -1.4143 0 0.465309 0.051701
90 3 0 0 -0.00138045 -1.41454 0 0.465309 0.051701
91 3 0 0 -0.00138068 -1.41478 0 0.465309 0.051701
92 3 0 0 -0.00138092 -1.41502 0 0.465309 0.051701
93 3 0 0 -0.00138116 -1.41527 0 0.465309 0.051701
94 3 0 0 -0.0013814 -1.41551 0 0.465309 0.051701
95 3 0 0 -0.00138164 -1.41576 0 0.465309 0.051701
96 3 0 0 -0.00138189 -1.41601 0 0.465309 0.051701
97 3 0 0 -0.00138213 -1.41626 0 0.465309 0.051701
98 3 0 0 -0.00138238 -1.41652 0 0.465309 0.051701
99 3 0 0 -0.00138262 -1.41677 0 0.465309 0.051701
100 3 0 0 -0.00138287 -1.41702 0 0.465309 0.051701
101 3 0 0 -0.00138312 -1.41727 0 0.465309 0.051701
102 3 0 0 -0.00138336 -1.41752 0 0.465309 0.051701
103 3 0 0 -0.00138361 -1.41778 0 0.465309 0.051701
104 3 0 0 -0.00138385 -1.41802 0 0.465309 0.051701
105 3 0 0 -0.00138409 -1.41827 0 0.465309 0.051701
106 3 0 0 -0.00138433 -1.41852 0 0.465309 0.051701
107 3 0 0 -0.00138457 -1.41876 0 0.465309 0.051701
108 3 0 0 -0.0013848 -1.419 0 0.465309 0.051701
109 3 0 0 -0.00138503 -1.41923 0 0.465309 0.051701
110 3 0 0 -0.00138526 -1.41947 0 0.465309 0.051701
111 3 0 0 -0.00138548 -1.41969 0 0.465309 0.051701
112 3 0 0 -0.0013857 -1.41992 0 0.465309 0.051701
113 3 0 0 -0.00138591 -1.42013 0 0.465309 0.051701
114 3 0 0 -0.00138612 -1.42035 0 0.465309 0.051701
115 3 0 0 -0.00138632 -1.42055 0 0.465309 0.051701
116 3 0 0 -0.00138651 -1.42075 0 0.465309 0.051701
117 3 0 0 -0.0013867 -1.42095 0 0.465309 0.051701
118 3 0 0 -0.00138689 -1.42114 0 0.465309 0.051701
119 3 0 0 -0.00138706 -1.42132 0 0.465309 0.051701
120 3 0 0 -0.00138723 -1.42149 0 0.465309 0.051701
121 3 0 0 -0.0013874 -1.42166 0 0.465309 0.051701
122 3 0 0 -0.00138755 -1.42182 0 0.465309 0.051701
123 3 0 0 -0.0013877 -1.42197 0 0.465309 0.051701
124 3 0 0 -0.00138784 -1.42212 0 0.465309 0.051701
125 3 0 0 -0.00138798 -1.42225 0 0.465309 0.051701
126 3 0 0 -0.0013881 -1.42238 0 0.465309 0.051701
127 3 0 0 -0.00138822 -1.42251 0 0.465309 0.051701
128 3 0 0 -0.00138834 -1.42262 0 0.465309 0.051701
129 3 0 0 -0.00138844 -1.42273 0 0.465309 0.051701
130 3 0 0 -0.00138854 -1.42283 0 0.465309 0.051701
131 3 0 0 -0.00138863 -1.42292 0 0.465309 0.051701
132 3 0 0 -0.00138872 -1.42301 0 0.465309 0.051701
133 3 0 0 -0.00138879 -1.42309 0 0.465309 0.051701
134 3 0 0 -0.00138887 -1.42316 0 0.465309 0.051701
135 3 0 0 -0.00138893 -1.42323 0 0.465309 0.051701
136 3 0 0 -0.00138899 -1.42329 0 0.465309 0.051701
137 3 0 0 -0.00138905 -1.42335 0 0.465309 0.051701
138 3 0 0 -0.0013891 -1.4234 0 0.465309 0.051701
139 3 0 0 -0.00138914 -1.42345 0 0.465309 0.051701
140 3 0 0 -0.00138918 -1.42348 0 0.465309 0.051701
141 3 0 0 -0.00138921 -1.42352 0 0.465309 0.051701
142 3 0 0 -0.00138924 -1.42355 0 0.465309 0.051701
143 3 0 0 -0.00138927 -1.42357 0 0.465309 0.051701
144 3 0 0 -0.00138928 -1.42359 0 0.465309 0.051701