Title="LBM for phase change with fin"
dt=1 dx=1
VARIABLES="X","Y","U","V","T","H","fl","pa","Test"
ZONE T="BOX",I=150,J=150,F=POINT
0 0 0 0 -0.00144496 -1.48065 0 0.750773 0.0834193
1 0 0 0 -0.00144496 -1.48065 0 0.750773 0.0834193
2 0 0 0 -0.00144497 -1.48065 0 0.750774 0.0834193
3 0 0 0 -0.00144498 -1.48067 0 0.750774 0.0834193
4 0 0 0 -0.00144501 -1.48069 0 0.750774 0.0834193
5 0 0 0 -0.00144504 -1.48073 0 0.750774 0.0834193
6 0 0 0 -0.00144508 -1.48077 0 0.750774 0.0834193
7 0 0 0 -0.00144514 -1.48082 0 0.750774 0.0834193
8 0 0 0 -0.0014452 -1.48089 0 0.750774 0.0834193
9 0 0 0 -0.00144527 -1.48096 0 0.750774 0.0834193
10 0 0 0 -0.00144535 -1.48104 0 0.750774 0.0834194
11 0 0 0 -0.00144544 -1.48113 0 0.750774 0.0834194
12 0 0 0 -0.00144554 -1.48123 0 0.750774 0.0834194
13 0 0 0 -0.00144565 -1.48135 0 0.750775 0.0834194
14 0 0 0 -0.00144577 -1.48147 0 0.750775 0.0834194
15 0 0 0 -0.00144589 -1.4816 0 0.750775 0.0834195
16 0 0 0 -0.00144603 -1.48174 0 0.750775 0.0834195
17 0 0 0 -0.00144618 -1.4819 0 0.750776 0.0834195
18 0 0 0 -0.00144634 -1.48206 0 0.750776 0.0834195
19 0 0 0 -0.00144651 -1.48223 0 0.750776 0.0834196
20 0 0 0 -0.00144669 -1.48242 0 0.750776 0.0834196
21 0 0 0 -0.00144688 -1.48261 0 0.750777 0.0834196
22 0 0 0 -0.00144708 -1.48281 0 0.750777 0.0834197
23 0 0 0 -0.00144729 -1.48303 0 0.750777 0.0834197
24 0 0 0 -0.00144751 -1.48326 0 0.750778 0.0834197
25 0 0 0 -0.00144774 -1.48349 0 0.750778 0.0834198
26 0 0 0 -0.00144798 -1.48374 0 0.750778 0.0834198
27 0 0 0 -0.00144824 -1.484 0 0.750779 0.0834199
28 0 0 0 -0.0014485 -1.48427 0 0.750779 0.0834199
29 0 0 0 -0.00144877 -1.48455 0 0.750779 0.08342
30 0 0 0 -0.00144906 -1.48484 0 0.75078 0.08342
31 0 0 0 -0.00144936 -1.48515 0 0.75078 0.08342
32 0 0 0 -0.00144966 -1.48546 0 0.750781 0.0834201
33 0 0 0 -0.00144998 -1.48579 0 0.750781 0.0834201
34 0 0 0 -0.00145031 -1.48612 0 0.750782 0.0834202
35 0 0 0 -0.00145065 -1.48647 0 0.750782 0.0834202
36 0 0 0 -0.001451 -1.48683 0 0.750783 0.0834203
37 0 0 0 -0.00145136 -1.4872 0 0.750783 0.0834204
38 0 0 0 -0.00145173 -1.48758 0 0.750784 0.0834204
39 0 0 0 -0.00145211 -1.48797 0 0.750784 0.0834205
40 0 0 0 -0.0014525 -1.48837 0 0.750785 0.0834205
41 0 0 0 -0.00145291 -1.48879 0 0.750785 0.0834206
42 0 0 0 -0.00145332 -1.48921 0 0.750786 0.0834207
43 0 0 0 -0.00145374 -1.48964 0 0.750786 0.0834207
44 0 0 0 -0.00145418 -1.49009 0 0.750787 0.0834208
45 0 0 0 -0.00145462 -1.49054 0 0.750787 0.0834208
46 0 0 0 -0.00145507 -1.49101 0 0.750788 0.0834209
47 0 0 0 -0.00145554 -1.49148 0 0.750789 0.083421
48 0 0 0 -0.00145601 -1.49197 0 0.750789 0.083421
49 0 0 0 -0.00145649 -1.49246 0 0.75079 0.0834211
50 0 0 0 -0.00145698 -1.49296 0 0.75079 0.0834212
51 0 0 0 -0.00145748 -1.49348 0 0.750791 0.0834212
52 0 0 0 -0.00145799 -1.494 0 0.750792 0.0834213
53 0 0 0 -0.00145851 -1.49453 0 0.750792 0.0834214
54 0 0 0 -0.00145904 -1.49507 0 0.750793 0.0834214
55 0 0 0 -0.00145957 -1.49562 0 0.750794 0.0834215
56 0 0 0 -0.00146011 -1.49617 0 0.750794 0.0834216
57 0 0 0 -0.00146066 -1.49674 0 0.750795 0.0834217
58 0 0 0 -0.00146122 -1.49731 0 0.750796 0.0834217
59 0 0 0 -0.00146179 -1.49789 0 0.750796 0.0834218
60 0 0 0 -0.00146236 -1.49847 0 0.750797 0.0834219
61 0 0 0 -0.00146294 -1.49906 0 0.750798 0.083422
62 0 0 0 -0.00146352 -1.49966 0 0.750798 0.083422
63 0 0 0 -0.00146411 -1.50027 0 0.750799 0.0834221
64 0 0 0 -0.00146471 -1.50088 0 0.7508 0.0834222
65 0 0 0 -0.00146532 -1.5015 0 0.7508 0.0834223
66 0 0 0 -0.00146592 -1.50213 0 0.750801 0.0834223
67 0 0 0 -0.00146654 -1.50276 0 0.750802 0.0834224
68 0 0 0 -0.00146716 -1.50339 0 0.750802 0.0834225
69 0 0 0 -0.00146778 -1.50403 0 0.750803 0.0834226
70 0 0 0 -0.00146841 -1.50467 0 0.750804 0.0834226
71 0 0 0 -0.00146904 -1.50532 0 0.750804 0.0834227
72 0 0 0 -0.00146968 -1.50597 0 0.750805 0.0834228
73 0 0 0 -0.00147032 -1.50663 0 0.750806 0.0834229
74 0 0 0 -0.00147096 -1.50729 0 0.750806 0.083423
75 0 0 0 -0.00147161 -1.50795 0 0.750807 0.083423
76 0 0 0 -0.00147226 -1.50862 0 0.750808 0.0834231
77 0 0 0 -0.00147291 -1.50928 0 0.750809 0.0834232
78 0 0 0 -0.00147356 -1.50995 0 0.750809 0.0834233
79 0 0 0 -0.00147422 -1.51062 0 0.75081 0.0834233
80 0 0 0 -0.00147487 -1.5113 0 0.750811 0.0834234
81 0 0 0 -0.00147553 -1.51197 0 0.750811 0.0834235
82 0 0 0 -0.00147619 -1.51265 0 0.750812 0.0834236
83 0 0 0 -0.00147685 -1.51332 0 0.750813 0.0834237
84 0 0 0 -0.00147751 -1.514 0 0.750813 0.0834237
85 0 0 0 -0.00147817 -1.51467 0 0.750814 0.0834238
86 0 0 0 -0.00147883 -1.51535 0 0.750815 0.0834239
87 0 0 0 -0.00147948 -1.51602 0 0.750815 0.083424
88 0 0 0 -0.00148014 -1.51669 0 0.750816 0.083424
89 0 0 0 -0.0014808 -1.51737 0 0.750817 0.0834241
90 0 0 0 -0.00148145 -1.51803 0 0.750818 0.0834242
91 0 0 0 -0.0014821 -1.5187 0 0.750818 0.0834243
92 0 0 0 -0.00148275 -1.51937 0 0.750819 0.0834243
93 0 0 0 -0.0014834 -1.52003 0 0.750819 0.0834244
94 0 0 0 -0.00148404 -1.52069 0 0.75082 0.0834245
95 0 0 0 -0.00148468 -1.52134 0 0.750821 0.0834245
96 0 0 0 -0.00148531 -1.52199 0 0.750821 0.0834246
97 0 0 0 -0.00148595 -1.52264 0 0.750822 0.0834247
98 0 0 0 -0.00148657 -1.52328 0 0.750823 0.0834248
99 0 0 0 -0.00148719 -1.52392 0 0.750823 0.0834248
100 0 0 0 -0.00148781 -1.52455 0 0.750824 0.0834249
101 0 0 0 -0.00148842 -1.52518 0 0.750824 0.083425
102 0 0 0 -0.00148902 -1.5258 0 0.750825 0.083425
103 0 0 0 -0.00148962 -1.52641 0 0.750826 0.0834251
104 0 0 0 -0.00149021 -1.52701 0 0.750826 0.0834252
105 0 0 0 -0.0014908 -1.52761 0 0.750827 0.0834252
106 0 0 0 -0.00149137 -1.5282 0 0.750827 0.0834253
107 0 0 0 -0.00149194 -1.52878 0 0.750828 0.0834253
108 0 0 0 -0.0014925 -1.52936 0 0.750828 0.0834254
109 0 0 0 -0.00149305 -1.52992 0 0.750829 0.0834255
110 0 0 0 -0.00149359 -1.53048 0 0.75083 0.0834255
111 0 0 0 -0.00149413 -1.53102 0 0.75083 0.0834256
112 0 0 0 -0.00149465 -1.53156 0 0.750831 0.0834256
113 0 0 0 -0.00149516 -1.53209 0 0.750831 0.0834257
114 0 0 0 -0.00149567 -1.5326 0 0.750832 0.0834257
115 0 0 0 -0.00149616 -1.53311 0 0.750832 0.0834258
116 0 0 0 -0.00149664 -1.5336 0 0.750832 0.0834258
117 0 0 0 -0.00149711 -1.53408 0 0.750833 0.0834259
118 0 0 0 -0.00149757 -1.53455 0 0.750833 0.0834259
119 0 0 0 -0.00149801 -1.53501 0 0.750834 0.083426
120 0 0 0 -0.00149845 -1.53545 0 0.750834 0.083426
121 0 0 0 -0.00149887 -1.53588 0 0.750835 0.0834261
122 0 0 0 -0.00149928 -1.5363 0 0.750835 0.0834261
123 0 0 0 -0.00149967 -1.53671 0 0.750835 0.0834262
124 0 0 0 -0.00150006 -1.5371 0 0.750836 0.0834262
125 0 0 0 -0.00150042 -1.53748 0 0.750836 0.0834262
126 0 0 0 -0.00150078 -1.53784 0 0.750836 0.0834263
127 0 0 0 -0.00150112 -1.53819 0 0.750837 0.0834263
128 0 0 0 -0.00150144 -1.53852 0 0.750837 0.0834263
129 0 0 0 -0.00150176 -1.53884 0 0.750837 0.0834264
130 0 0 0 -0.00150205 -1.53915 0 0.750838 0.0834264
131 0 0 0 -0.00150233 -1.53943 0 0.750838 0.0834264
132 0 0 0 -0.0015026 -1.53971 0 0.750838 0.0834265
133 0 0 0 -0.00150285 -1.53996 0 0.750838 0.0834265
134 0 0 0 -0.00150309 -1.54021 0 0.750839 0.0834265
135 0 0 0 -0.00150331 -1.54043 0 0.750839 0.0834265
136 0 0 0 -0.00150351 -1.54064 0 0.750839 0.0834266
137 0 0 0 -0.0015037 -1.54083 0 0.750839 0.0834266
138 0 0 0 -0.00150387 -1.54101 0 0.750839 0.0834266
139 0 0 0 -0.00150403 -1.54117 0 0.75084 0.0834266
140 0 0 0 -0.00150417 -1.54132 0 0.75084 0.0834266
141 0 0 0 -0.00150429 -1.54144 0 0.75084 0.0834266
142 0 0 0 -0.0015044 -1.54155 0 0.75084 0.0834267
143 0 0 0 -0.00150449 -1.54165 0 0.75084 0.0834267
144 0 0 0 -0.00150457 -1.54172 0 0.75084 0.0834267
145 0 0 0 -0.00150463 -1.54178 0 0.75084 0.0834267
146 0 0 0 -0.00150467 -1.54183 0 0.75084 0.0834267
147 0 0 0 -0.0015047 -1.54185 0 0.75084 0.0834267
148 0 0 0 -0.0015047 -1.54186 0 0.75084 0.0834267
149 0 0 0 -0.0015047 -1.54186 0 0.75084 0.0834267
0 1 0 0 -0.00144496 -1.48065 0 0.750773 0.0834193
1 1 0 0 -0.00144497 -1.48065 0 0.750773 0.0834193
2 1 0 0 -0.00144497 -1.48065 0 0.750773 0.0834193
3 1 0 0 -0.00144498 -1.48067 0 0.750773 0.0834193
4 1 0 0 -0.00144501 -1.48069 0 0.750774 0.0834193
5 1 0 0 -0.00144504 -1.48073 0 0.750774 0.0834193
6 1 0 0 -0.00144508 -1.48077 0 0.750774 0.0834193
7 1 0 0 -0.00144514 -1.48082 0 0.750774 0.0834193
8 1 0 0 -0.0014452 -1.48089 0 0.750774 0.0834193
9 1 0 0 -0.00144527 -1.48096 0 0.750774 0.0834193
10 1 0 0 -0.00144535 -1.48104 0 0.750774 0.0834194
11 1 0 0 -0.00144544 -1.48113 0 0.750774 0.0834194
12 1 0 0 -0.00144554 -1.48123 0 0.750774 0.0834194
13 1 0 0 -0.00144565 -1.48135 0 0.750775 0.0834194
14 1 0 0 -0.00144577 -1.48147 0 0.750775 0.0834194
15 1 0 0 -0.00144589 -1.4816 0 0.750775 0.0834195
16 1 0 0 -0.00144603 -1.48174 0 0.750775 0.0834195
17 1 0 0 -0.00144618 -1.4819 0 0.750775 0.0834195
18 1 0 0 -0.00144634 -1.48206 0 0.750776 0.0834195
19 1 0 0 -0.00144651 -1.48223 0 0.750776 0.0834196
20 1 0 0 -0.00144669 -1.48242 0 0.750776 0.0834196
21 1 0 0 -0.00144688 -1.48261 0 0.750777 0.0834196
22 1 0 0 -0.00144708 -1.48281 0 0.750777 0.0834197
23 1 0 0 -0.00144729 -1.48303 0 0.750777 0.0834197
24 1 0 0 -0.00144751 -1.48326 0 0.750778 0.0834197
25 1 0 0 -0.00144774 -1.48349 0 0.750778 0.0834198
26 1 0 0 -0.00144798 -1.48374 0 0.750778 0.0834198
27 1 0 0 -0.00144824 -1.484 0 0.750779 0.0834199
28 1 0 0 -0.0014485 -1.48427 0 0.750779 0.0834199
29 1 0 0 -0.00144877 -1.48455 0 0.750779 0.08342
30 1 0 0 -0.00144906 -1.48484 0 0.75078 0.08342
31 1 0 0 -0.00144936 -1.48515 0 0.75078 0.08342
32 1 0 0 -0.00144966 -1.48546 0 0.750781 0.0834201
33 1 0 0 -0.00144998 -1.48579 0 0.750781 0.0834201
34 1 0 0 -0.00145031 -1.48612 0 0.750782 0.0834202
35 1 0 0 -0.00145065 -1.48647 0 0.750782 0.0834202
36 1 0 0 -0.001451 -1.48683 0 0.750783 0.0834203
37 1 0 0 -0.00145136 -1.4872 0 0.750783 0.0834204
38 1 0 0 -0.00145173 -1.48758 0 0.750784 0.0834204
39 1 0 0 -0.00145211 -1.48797 0 0.750784 0.0834205
40 1 0 0 -0.0014525 -1.48837 0 0.750785 0.0834205
41 1 0 0 -0.00145291 -1.48879 0 0.750785 0.0834206
42 1 0 0 -0.00145332 -1.48921 0 0.750786 0.0834207
43 1 0 0 -0.00145374 -1.48964 0 0.750786 0.0834207
44 1 0 0 -0.00145418 -1.49009 0 0.750787 0.0834208
45 1 0 0 -0.00145462 -1.49054 0 0.750787 0.0834208
46 1 0 0 -0.00145507 -1.49101 0 0.750788 0.0834209
47 1 0 0 -0.00145554 -1.49148 0 0.750789 0.083421
48 1 0 0 -0.00145601 -1.49197 0 0.750789 0.083421
49 1 0 0 -0.00145649 -1.49246 0 0.75079 0.0834211
50 1 0 0 -0.00145698 -1.49296 0 0.75079 0.0834212
51 1 0 0 -0.00145748 -1.49348 0 0.750791 0.0834212
52 1 0 0 -0.00145799 -1.494 0 0.750792 0.0834213
53 1 0 0 -0.00145851 -1.49453 0 0.750792 0.0834214
54 1 0 0 -0.00145904 -1.49507 0 0.750793 0.0834214
55 1 0 0 -0.00145957 -1.49562 0 0.750794 0.0834215
56 1 0 0 -0.00146011 -1.49617 0 0.750794 0.0834216
57 1 0 0 -0.00146066 -1.49674 0 0.750795 0.0834217
58 1 0 0 -0.00146122 -1.49731 0 0.750795 0.0834217
59 1 0 0 -0.00146179 -1.49789 0 0.750796 0.0834218
60 1 0 0 -0.00146236 -1.49847 0 0.750797 0.0834219
61 1 0 0 -0.00146294 -1.49906 0 0.750797 0.083422
62 1 0 0 -0.00146352 -1.49966 0 0.750798 0.083422
63 1 0 0 -0.00146411 -1.50027 0 0.750799 0.0834221
64 1 0 0 -0.00146471 -1.50088 0 0.7508 0.0834222
65 1 0 0 -0.00146532 -1.5015 0 0.7508 0.0834223
66 1 0 0 -0.00146592 -1.50213 0 0.750801 0.0834223
67 1 0 0 -0.00146654 -1.50276 0 0.750802 0.0834224
68 1 0 0 -0.00146716 -1.50339 0 0.750802 0.0834225
69 1 0 0 -0.00146778 -1.50403 0 0.750803 0.0834226
70 1 0 0 -0.00146841 -1.50467 0 0.750804 0.0834226
71 1 0 0 -0.00146904 -1.50532 0 0.750804 0.0834227
72 1 0 0 -0.00146968 -1.50597 0 0.750805 0.0834228
73 1 0 0 -0.00147032 -1.50663 0 0.750806 0.0834229
74 1 0 0 -0.00147096 -1.50729 0 0.750806 0.083423
75 1 0 0 -0.00147161 -1.50795 0 0.750807 0.083423
76 1 0 0 -0.00147226 -1.50862 0 0.750808 0.0834231
77 1 0 0 -0.00147291 -1.50928 0 0.750809 0.0834232
78 1 0 0 -0.00147356 -1.50995 0 0.750809 0.0834233
79 1 0 0 -0.00147422 -1.51062 0 0.75081 0.0834233
80 1 0 0 -0.00147487 -1.5113 0 0.750811 0.0834234
81 1 0 0 -0.00147553 -1.51197 0 0.750811 0.0834235
82 1 0 0 -0.00147619 -1.51265 0 0.750812 0.0834236
83 1 0 0 -0.00147685 -1.51332 0 0.750813 0.0834237
84 1 0 0 -0.00147751 -1.514 0 0.750813 0.0834237
85 1 0 0 -0.00147817 -1.51467 0 0.750814 0.0834238
86 1 0 0 -0.00147883 -1.51535 0 0.750815 0.0834239
87 1 0 0 -0.00147948 -1.51602 0 0.750815 0.083424
88 1 0 0 -0.00148014 -1.51669 0 0.750816 0.083424
89 1 0 0 -0.0014808 -1.51737 0 0.750817 0.0834241
90 1 0 0 -0.00148145 -1.51803 0 0.750817 0.0834242
91 1 0 0 -0.0014821 -1.5187 0 0.750818 0.0834243
92 1 0 0 -0.00148275 -1.51937 0 0.750819 0.0834243
93 1 0 0 -0.0014834 -1.52003 0 0.750819 0.0834244
94 1 0 0 -0.00148404 -1.52069 0 0.75082 0.0834245
95 1 0 0 -0.00148468 -1.52134 0 0.750821 0.0834245
96 1 0 0 -0.00148531 -1.52199 0 0.750821 0.0834246
97 1 0 0 -0.00148595 -1.52264 0 0.750822 0.0834247
98 1 0 0 -0.00148657 -1.52328 0 0.750823 0.0834248
99 1 0 0 -0.00148719 -1.52392 0 0.750823 0.0834248
100 1 0 0 -0.00148781 -1.52455 0 0.750824 0.0834249
101 1 0 0 -0.00148842 -1.52518 0 0.750824 0.083425
102 1 0 0 -0.00148902 -1.5258 0 0.750825 0.083425
103 1 0 0 -0.00148962 -1.52641 0 0.750826 0.0834251
104 1 0 0 -0.00149021 -1.52701 0 0.750826 0.0834252
105 1 0 0 -0.0014908 -1.52761 0 0.750827 0.0834252
106 1 0 0 -0.00149137 -1.5282 0 0.750827 0.0834253
107 1 0 0 -0.00149194 -1.52878 0 0.750828 0.0834253
108 1 0 0 -0.0014925 -1.52936 0 0.750828 0.0834254
109 1 0 0 -0.00149305 -1.52992 0 0.750829 0.0834255
110 1 0 0 -0.00149359 -1.53048 0 0.750829 0.0834255
111 1 0 0 -0.00149413 -1.53102 0 0.75083 0.0834256
112 1 0 0 -0.00149465 -1.53156 0 0.750831 0.0834256
113 1 0 0 -0.00149516 -1.53209 0 0.750831 0.0834257
114 1 0 0 -0.00149567 -1.5326 0 0.750831 0.0834257
115 1 0 0 -0.00149616 -1.53311 0 0.750832 0.0834258
116 1 0 0 -0.00149664 -1.5336 0 0.750832 0.0834258
117 1 0 0 -0.00149711 -1.53408 0 0.750833 0.0834259
118 1 0 0 -0.00149757 -1.53455 0 0.750833 0.0834259
119 1 0 0 -0.00149801 -1.53501 0 0.750834 0.083426
120 1 0 0 -0.00149845 -1.53545 0 0.750834 0.083426
121 1 0 0 -0.00149887 -1.53588 0 0.750835 0.0834261
122 1 0 0 -0.00149928 -1.5363 0 0.750835 0.0834261
123 1 0 0 -0.00149967 -1.53671 0 0.750835 0.0834262
124 1 0 0 -0.00150006 -1.5371 0 0.750836 0.0834262
125 1 0 0 -0.00150042 -1.53748 0 0.750836 0.0834262
126 1 0 0 -0.00150078 -1.53784 0 0.750836 0.0834263
127 1 0 0 -0.00150112 -1.53819 0 0.750837 0.0834263
128 1 0 0 -0.00150144 -1.53852 0 0.750837 0.0834263
129 1 0 0 -0.00150176 -1.53884 0 0.750837 0.0834264
130 1 0 0 -0.00150205 -1.53915 0 0.750838 0.0834264
131 1 0 0 -0.00150233 -1.53943 0 0.750838 0.0834264
132 1 0 0 -0.0015026 -1.53971 0 0.750838 0.0834265
133 1 0 0 -0.00150285 -1.53996 0 0.750838 0.0834265
134 1 0 0 -0.00150309 -1.54021 0 0.750839 0.0834265
135 1 0 0 -0.00150331 -1.54043 0 0.750839 0.0834265
136 1 0 0 -0.00150351 -1.54064 0 0.750839 0.0834266
137 1 0 0 -0.0015037 -1.54083 0 0.750839 0.0834266
138 1 0 0 -0.00150387 -1.54101 0 0.750839 0.0834266
139 1 0 0 -0.00150403 -1.54117 0 0.75084 0.0834266
140 1 0 0 -0.00150417 -1.54132 0 0.75084 0.0834266
141 1 0 0 -0.00150429 -1.54144 0 0.75084 0.0834266
142 1 0 0 -0.0015044 -1.54155 0 0.75084 0.0834267
143 1 0 0 -0.00150449 -1.54165 0 0.75084 0.0834267
144 1 0 0 -0.00150457 -1.54172 0 0.75084 0.0834267
145 1 0 0 -0.00150463 -1.54178 0 0.75084 0.0834267
146 1 0 0 -0.00150467 -1.54183 0 0.75084 0.0834267
147 1 0 0 -0.0015047 -1.54185 0 0.75084 0.0834267
148 1 0 0 -0.0015047 -1.54186 0 0.75084 0.0834267
149 1 0 0 -0.0015047 -1.54186 0 0.75084 0.0834267
0 2 0 0 -0.00144496 -1.48065 0 0.750773 0.0834192
1 2 0 0 -0.00144496 -1.48065 0 0.750773 0.0834192
2 2 0 0 -0.00144497 -1.48065 0 0.750773 0.0834192
3 2 0 0 -0.00144498 -1.48067 0 0.750773 0.0834192
4 2 0 0 -0.00144501 -1.48069 0 0.750773 0.0834192
5 2 0 0 -0.00144504 -1.48073 0 0.750773 0.0834192
6 2 0 0 -0.00144508 -1.48077 0 0.750773 0.0834193
7 2 0 0 -0.00144513 -1.48082 0 0.750773 0.0834193
8 2 0 0 -0.0014452 -1.48088 0 0.750773 0.0834193
9 2 0 0 -0.00144527 -1.48096 0 0.750774 0.0834193
10 2 0 0 -0.00144535 -1.48104 0 0.750774 0.0834193
11 2 0 0 -0.00144544 -1.48113 0 0.750774 0.0834193
12 2 0 0 -0.00144554 -1.48123 0 0.750774 0.0834193
13 2 0 0 -0.00144564 -1.48134 0 0.750774 0.0834194
14 2 0 0 -0.00144576 -1.48147 0 0.750774 0.0834194
15 2 0 0 -0.00144589 -1.4816 0 0.750775 0.0834194
16 2 0 0 -0.00144603 -1.48174 0 0.750775 0.0834194
17 2 0 0 -0.00144618 -1.48189 0 0.750775 0.0834195
18 2 0 0 -0.00144634 -1.48206 0 0.750775 0.0834195
19 2 0 0 -0.00144651 -1.48223 0 0.750776 0.0834195
20 2 0 0 -0.00144669 -1.48241 0 0.750776 0.0834196
21 2 0 0 -0.00144688 -1.48261 0 0.750776 0.0834196
22 2 0 0 -0.00144708 -1.48281 0 0.750776 0.0834196
23 2 0 0 -0.00144729 -1.48303 0 0.750777 0.0834197
24 2 0 0 -0.00144751 -1.48325 0 0.750777 0.0834197
25 2 0 0 -0.00144774 -1.48349 0 0.750777 0.0834197
26 2 0 0 -0.00144798 -1.48374 0 0.750778 0.0834198
27 2 0 0 -0.00144823 -1.484 0 0.750778 0.0834198
28 2 0 0 -0.0014485 -1.48427 0 0.750779 0.0834199
29 2 0 0 -0.00144877 -1.48455 0 0.750779 0.0834199
30 2 0 0 -0.00144906 -1.48484 0 0.750779 0.08342
31 2 0 0 -0.00144935 -1.48514 0 0.75078 0.08342
32 2 0 0 -0.00144966 -1.48546 0 0.75078 0.08342
33 2 0 0 -0.00144998 -1.48578 0 0.750781 0.0834201
34 2 0 0 -0.0014503 -1.48612 0 0.750781 0.0834201
35 2 0 0 -0.00145064 -1.48647 0 0.750782 0.0834202
36 2 0 0 -0.00145099 -1.48683 0 0.750782 0.0834203
37 2 0 0 -0.00145135 -1.4872 0 0.750783 0.0834203
38 2 0 0 -0.00145173 -1.48758 0 0.750783 0.0834204
39 2 0 0 -0.00145211 -1.48797 0 0.750784 0.0834204
40 2 0 0 -0.0014525 -1.48837 0 0.750784 0.0834205
41 2 0 0 -0.0014529 -1.48878 0 0.750785 0.0834205
42 2 0 0 -0.00145332 -1.48921 0 0.750785 0.0834206
43 2 0 0 -0.00145374 -1.48964 0 0.750786 0.0834207
44 2 0 0 -0.00145417 -1.49008 0 0.750786 0.0834207
45 2 0 0 -0.00145462 -1.49054 0 0.750787 0.0834208
46 2 0 0 -0.00145507 -1.491 0 0.750788 0.0834209
47 2 0 0 -0.00145553 -1.49148 0 0.750788 0.0834209
48 2 0 0 -0.00145601 -1.49196 0 0.750789 0.083421
49 2 0 0 -0.00145649 -1.49246 0 0.750789 0.0834211
50 2 0 0 -0.00145698 -1.49296 0 0.75079 0.0834211
51 2 0 0 -0.00145748 -1.49347 0 0.750791 0.0834212
52 2 0 0 -0.00145799 -1.49399 0 0.750791 0.0834213
53 2 0 0 -0.00145851 -1.49452 0 0.750792 0.0834213
54 2 0 0 -0.00145903 -1.49506 0 0.750792 0.0834214
55 2 0 0 -0.00145957 -1.49561 0 0.750793 0.0834215
56 2 0 0 -0.00146011 -1.49617 0 0.750794 0.0834215
57 2 0 0 -0.00146066 -1.49673 0 0.750794 0.0834216
58 2 0 0 -0.00146122 -1.4973 0 0.750795 0.0834217
59 2 0 0 -0.00146178 -1.49788 0 0.750796 0.0834218
60 2 0 0 -0.00146236 -1.49847 0 0.750796 0.0834218
61 2 0 0 -0.00146293 -1.49906 0 0.750797 0.0834219
62 2 0 0 -0.00146352 -1.49966 0 0.750798 0.083422
63 2 0 0 -0.00146411 -1.50027 0 0.750798 0.0834221
64 2 0 0 -0.00146471 -1.50088 0 0.750799 0.0834221
65 2 0 0 -0.00146531 -1.5015 0 0.7508 0.0834222
66 2 0 0 -0.00146592 -1.50212 0 0.7508 0.0834223
67 2 0 0 -0.00146654 -1.50275 0 0.750801 0.0834224
68 2 0 0 -0.00146716 -1.50339 0 0.750802 0.0834224
69 2 0 0 -0.00146778 -1.50403 0 0.750803 0.0834225
70 2 0 0 -0.00146841 -1.50467 0 0.750803 0.0834226
71 2 0 0 -0.00146904 -1.50532 0 0.750804 0.0834227
72 2 0 0 -0.00146968 -1.50597 0 0.750805 0.0834228
73 2 0 0 -0.00147032 -1.50663 0 0.750805 0.0834228
74 2 0 0 -0.00147096 -1.50729 0 0.750806 0.0834229
75 2 0 0 -0.00147161 -1.50795 0 0.750807 0.083423
76 2 0 0 -0.00147226 -1.50861 0 0.750807 0.0834231
77 2 0 0 -0.00147291 -1.50928 0 0.750808 0.0834231
78 2 0 0 -0.00147356 -1.50995 0 0.750809 0.0834232
79 2 0 0 -0.00147422 -1.51062 0 0.75081 0.0834233
80 2 0 0 -0.00147487 -1.51129 0 0.75081 0.0834234
81 2 0 0 -0.00147553 -1.51197 0 0.750811 0.0834235
82 2 0 0 -0.00147619 -1.51264 0 0.750812 0.0834235
83 2 0 0 -0.00147685 -1.51332 0 0.750812 0.0834236
84 2 0 0 -0.00147751 -1.514 0 0.750813 0.0834237
85 2 0 0 -0.00147817 -1.51467 0 0.750814 0.0834238
86 2 0 0 -0.00147883 -1.51535 0 0.750814 0.0834238
87 2 0 0 -0.00147948 -1.51602 0 0.750815 0.0834239
88 2 0 0 -0.00148014 -1.51669 0 0.750816 0.083424
89 2 0 0 -0.0014808 -1.51737 0 0.750816 0.0834241
90 2 0 0 -0.00148145 -1.51804 0 0.750817 0.0834241
91 2 0 0 -0.0014821 -1.5187 0 0.750818 0.0834242
92 2 0 0 -0.00148275 -1.51937 0 0.750818 0.0834243
93 2 0 0 -0.0014834 -1.52003 0 0.750819 0.0834244
94 2 0 0 -0.00148404 -1.52069 0 0.75082 0.0834244
95 2 0 0 -0.00148468 -1.52134 0 0.75082 0.0834245
96 2 0 0 -0.00148532 -1.522 0 0.750821 0.0834246
97 2 0 0 -0.00148595 -1.52264 0 0.750822 0.0834246
98 2 0 0 -0.00148657 -1.52328 0 0.750822 0.0834247
99 2 0 0 -0.00148719 -1.52392 0 0.750823 0.0834248
100 2 0 0 -0.00148781 -1.52455 0 0.750823 0.0834248
101 2 0 0 -0.00148842 -1.52518 0 0.750824 0.0834249
102 2 0 0 -0.00148903 -1.5258 0 0.750825 0.083425
103 2 0 0 -0.00148962 -1.52641 0 0.750825 0.083425
104 2 0 0 -0.00149021 -1.52702 0 0.750826 0.0834251
105 2 0 0 -0.0014908 -1.52761 0 0.750826 0.0834252
106 2 0 0 -0.00149137 -1.5282 0 0.750827 0.0834252
107 2 0 0 -0.00149194 -1.52879 0 0.750827 0.0834253
108 2 0 0 -0.0014925 -1.52936 0 0.750828 0.0834254
109 2 0 0 -0.00149305 -1.52993 0 0.750829 0.0834254
110 2 0 0 -0.0014936 -1.53048 0 0.750829 0.0834255
111 2 0 0 -0.00149413 -1.53103 0 0.75083 0.0834255
112 2 0 0 -0.00149465 -1.53156 0 0.75083 0.0834256
113 2 0 0 -0.00149517 -1.53209 0 0.750831 0.0834256
114 2 0 0 -0.00149567 -1.53261 0 0.750831 0.0834257
115 2 0 0 -0.00149616 -1.53311 0 0.750832 0.0834257
116 2 0 0 -0.00149664 -1.5336 0 0.750832 0.0834258
117 2 0 0 -0.00149711 -1.53409 0 0.750832 0.0834258
118 2 0 0 -0.00149757 -1.53455 0 0.750833 0.0834259
119 2 0 0 -0.00149802 -1.53501 0 0.750833 0.0834259
120 2 0 0 -0.00149845 -1.53546 0 0.750834 0.083426
121 2 0 0 -0.00149887 -1.53589 0 0.750834 0.083426
122 2 0 0 -0.00149928 -1.53631 0 0.750835 0.0834261
123 2 0 0 -0.00149968 -1.53671 0 0.750835 0.0834261
124 2 0 0 -0.00150006 -1.5371 0 0.750835 0.0834262
125 2 0 0 -0.00150043 -1.53748 0 0.750836 0.0834262
126 2 0 0 -0.00150078 -1.53784 0 0.750836 0.0834262
127 2 0 0 -0.00150112 -1.53819 0 0.750836 0.0834263
128 2 0 0 -0.00150145 -1.53853 0 0.750837 0.0834263
129 2 0 0 -0.00150176 -1.53885 0 0.750837 0.0834263
130 2 0 0 -0.00150206 -1.53915 0 0.750837 0.0834264
131 2 0 0 -0.00150234 -1.53944 0 0.750837 0.0834264
132 2 0 0 -0.00150261 -1.53971 0 0.750838 0.0834264
133 2 0 0 -0.00150286 -1.53997 0 0.750838 0.0834265
134 2 0 0 -0.00150309 -1.54021 0 0.750838 0.0834265
135 2 0 0 -0.00150331 -1.54044 0 0.750838 0.0834265
136 2 0 0 -0.00150352 -1.54065 0 0.750839 0.0834265
137 2 0 0 -0.00150371 -1.54084 0 0.750839 0.0834265
138 2 0 0 -0.00150388 -1.54102 0 0.750839 0.0834266
139 2 0 0 -0.00150404 -1.54118 0 0.750839 0.0834266
140 2 0 0 -0.00150418 -1.54132 0 0.750839 0.0834266
141 2 0 0 -0.0015043 -1.54145 0 0.750839 0.0834266
142 2 0 0 -0.00150441 -1.54156 0 0.750839 0.0834266
143 2 0 0 -0.0015045 -1.54165 0 0.75084 0.0834266
144 2 0 0 -0.00150457 -1.54173 0 0.75084 0.0834266
145 2 0 0 -0.00150463 -1.54179 0 0.75084 0.0834266
146 2 0 0 -0.00150467 -1.54183 0 0.75084 0.0834266
147 2 0 0 -0.0015047 -1.54186 0 0.75084 0.0834266
148 2 0 0 -0.00150471 -1.54187 0 0.75084 0.0834266
149 2 0 0 -0.00150471 -1.54187 0 0.75084 0.0834266
0 3 0 0 -0.00144496 -1.48064 0 0.750772 0.0834191
1 3 0 0 -0.00144496 -1.48064 0 0.750772 0.0834191
2 3 0 0 -0.00144496 -1.48065 0 0.750772 0.0834191
3 3 0 0 -0.00144498 -1.48066 0 0.750772 0.0834191
4 3 0 0 -0.001445 -1.48069 0 0.750772 0.0834191
5 3 0 0 -0.00144504 -1.48072 0 0.750772 0.0834191
6 3 0 0 -0.00144508 -1.48076 0 0.750772 0.0834191
7 3 0 0 -0.00144513 -1.48082 0 0.750772 0.0834192
8 3 0 0 -0.00144519 -1.48088 0 0.750772 0.0834192
9 3 0 0 -0.00144526 -1.48095 0 0.750773 0.0834192
10 3 0 0 -0.00144534 -1.48103 0 0.750773 0.0834192
11 3 0 0 -0.00144543 -1.48113 0 0.750773 0.0834192
12 3 0 0 -0.00144553 -1.48123 0 0.750773 0.0834192
13 3 0 0 -0.00144564 -1.48134 0 0.750773 0.0834193
14 3 0 0 -0.00144576 -1.48146 0 0.750773 0.0834193
15 3 0 0 -0.00144589 -1.48159 0 0.750774 0.0834193
16 3 0 0 -0.00144602 -1.48173 0 0.750774 0.0834193
17 3 0 0 -0.00144617 -1.48189 0 0.750774 0.0834194
18 3 0 0 -0.00144633 -1.48205 0 0.750774 0.0834194
19 3 0 0 -0.0014465 -1.48222 0 0.750775 0.0834194
20 3 0 0 -0.00144668 -1.48241 0 0.750775 0.0834194
21 3 0 0 -0.00144687 -1.4826 0 0.750775 0.0834195
22 3 0 0 -0.00144707 -1.4828 0 0.750775 0.0834195
23 3 0 0 -0.00144728 -1.48302 0 0.750776 0.0834195
24 3 0 0 -0.0014475 -1.48325 0 0.750776 0.0834196
25 3 0 0 -0.00144773 -1.48348 0 0.750777 0.0834196
26 3 0 0 -0.00144797 -1.48373 0 0.750777 0.0834197
27 3 0 0 -0.00144822 -1.48399 0 0.750777 0.0834197
28 3 0 0 -0.00144849 -1.48426 0 0.750778 0.0834198
29 3 0 0 -0.00144876 -1.48454 0 0.750778 0.0834198
30 3 0 0 -0.00144905 -1.48483 0 0.750778 0.0834198
31 3 0 0 -0.00144934 -1.48513 0 0.750779 0.0834199
32 3 0 0 -0.00144965 -1.48545 0 0.750779 0.0834199
33 3 0 0 -0.00144997 -1.48577 0 0.75078 0.08342
34 3 0 0 -0.00145029 -1.48611 0 0.75078 0.08342
35 3 0 0 -0.00145063 -1.48646 0 0.750781 0.0834201
36 3 0 0 -0.00145098 -1.48681 0 0.750781 0.0834201
37 3 0 0 -0.00145134 -1.48718 0 0.750782 0.0834202
38 3 0 0 -0.00145171 -1.48756 0 0.750782 0.0834203
39 3 0 0 -0.0014521 -1.48796 0 0.750783 0.0834203
40 3 0 0 -0.00145249 -1.48836 0 0.750783 0.0834204
41 3 0 0 -0.00145289 -1.48877 0 0.750784 0.0834204
42 3 0 0 -0.0014533 -1.48919 0 0.750784 0.0834205
43 3 0 0 -0.00145373 -1.48963 0 0.750785 0.0834206
44 3 0 0 -0.00145416 -1.49007 0 0.750785 0.0834206
45 3 0 0 -0.0014546 -1.49053 0 0.750786 0.0834207
46 3 0 0 -0.00145506 -1.49099 0 0.750787 0.0834207
47 3 0 0 -0.00145552 -1.49147 0 0.750787 0.0834208
48 3 0 0 -0.00145599 -1.49195 0 0.750788 0.0834209
49 3 0 0 -0.00145648 -1.49244 0 0.750788 0.0834209
50 3 0 0 -0.00145697 -1.49295 0 0.750789 0.083421
51 3 0 0 -0.00145747 -1.49346 0 0.75079 0.0834211
52 3 0 0 -0.00145798 -1.49398 0 0.75079 0.0834212
53 3 0 0 -0.0014585 -1.49451 0 0.750791 0.0834212
54 3 0 0 -0.00145902 -1.49505 0 0.750791 0.0834213
55 3 0 0 -0.00145956 -1.4956 0 0.750792 0.0834214
56 3 0 0 -0.0014601 -1.49616 0 0.750793 0.0834214
57 3 0 0 -0.00146065 -1.49672 0 0.750793 0.0834215
58 3 0 0 -0.00146121 -1.49729 0 0.750794 0.0834216
59 3 0 0 -0.00146177 -1.49787 0 0.750795 0.0834217
60 3 0 0 -0.00146235 -1.49846 0 0.750795 0.0834217
61 3 0 0 -0.00146292 -1.49905 0 0.750796 0.0834218
62 3 0 0 -0.00146351 -1.49965 0 0.750797 0.0834219
63 3 0 0 -0.0014641 -1.50026 0 0.750797 0.083422
64 3 0 0 -0.0014647 -1.50087 0 0.750798 0.083422
65 3 0 0 -0.0014653 -1.50149 0 0.750799 0.0834221
66 3 0 0 -0.00146591 -1.50211 0 0.750799 0.0834222
67 3 0 0 -0.00146653 -1.50274 0 0.7508 0.0834223
68 3 0 0 -0.00146715 -1.50338 0 0.750801 0.0834223
69 3 0 0 -0.00146777 -1.50402 0 0.750802 0.0834224
70 3 0 0 -0.0014684 -1.50466 0 0.750802 0.0834225
71 3 0 0 -0.00146903 -1.50531 0 0.750803 0.0834226
72 3 0 0 -0.00146967 -1.50596 0 0.750804 0.0834226
73 3 0 0 -0.00147031 -1.50662 0 0.750804 0.0834227
74 3 0 0 -0.00147095 -1.50728 0 0.750805 0.0834228
75 3 0 0 -0.0014716 -1.50794 0 0.750806 0.0834229
76 3 0 0 -0.00147225 -1.50861 0 0.750806 0.083423
77 3 0 0 -0.0014729 -1.50928 0 0.750807 0.083423
78 3 0 0 -0.00147356 -1.50995 0 0.750808 0.0834231
79 3 0 0 -0.00147421 -1.51062 0 0.750809 0.0834232
80 3 0 0 -0.00147487 -1.51129 0 0.750809 0.0834233
81 3 0 0 -0.00147553 -1.51197 0 0.75081 0.0834233
82 3 0 0 -0.00147619 -1.51264 0 0.750811 0.0834234
83 3 0 0 -0.00147685 -1.51332 0 0.750811 0.0834235
84 3 0 0 -0.00147751 -1.51399 0 0.750812 0.0834236
85 3 0 0 -0.00147817 -1.51467 0 0.750813 0.0834237
86 3 0 0 -0.00147882 -1.51534 0 0.750813 0.0834237
87 3 0 0 -0.00147948 -1.51602 0 0.750814 0.0834238
88 3 0 0 -0.00148014 -1.51669 0 0.750815 0.0834239
89 3 0 0 -0.0014808 -1.51737 0 0.750815 0.083424
90 3 0 0 -0.00148145 -1.51804 0 0.750816 0.083424
91 3 0 0 -0.0014821 -1.5187 0 0.750817 0.0834241
92 3 0 0 -0.00148275 -1.51937 0 0.750817 0.0834242
93 3 0 0 -0.0014834 -1.52003 0 0.750818 0.0834242
94 3 0 0 -0.00148404 -1.52069 0 0.750819 0.0834243
95 3 0 0 -0.00148468 -1.52135 0 0.750819 0.0834244
96 3 0 0 -0.00148532 -1.522 0 0.75082 0.0834245
97 3 0 0 -0.00148595 -1.52265 0 0.750821 0.0834245
98 3 0 0 -0.00148658 -1.52329 0 0.750821 0.0834246
99 3 0 0 -0.0014872 -1.52392 0 0.750822 0.0834247
100 3 0 0 -0.00148782 -1.52456 0 0.750822 0.0834247
101 3 0 0 -0.00148843 -1.52518 0 0.750823 0.0834248
102 3 0 0 -0.00148903 -1.5258 0 0.750824 0.0834249
103 3 0 0 -0.00148963 -1.52642 0 0.750824 0.0834249
104 3 0 0 -0.00149022 -1.52702 0 0.750825 0.083425
105 3 0 0 -0.0014908 -1.52762 0 0.750825 0.0834251
106 3 0 0 -0.00149138 -1.52821 0 0.750826 0.0834251
107 3 0 0 -0.00149195 -1.52879 0 0.750827 0.0834252
108 3 0 0 -0.00149251 -1.52937 0 0.750827 0.0834252
109 3 0 0 -0.00149306 -1.52993 0 0.750828 0.0834253
110 3 0 0 -0.00149361 -1.53049 0 0.750828 0.0834254
111 3 0 0 -0.00149414 -1.53104 0 0.750829 0.0834254
112 3 0 0 -0.00149466 -1.53157 0 0.750829 0.0834255
113 3 0 0 -0.00149518 -1.5321 0 0.75083 0.0834255
114 3 0 0 -0.00149568 -1.53262 0 0.75083 0.0834256
115 3 0 0 -0.00149617 -1.53312 0 0.750831 0.0834256
116 3 0 0 -0.00149665 -1.53361 0 0.750831 0.0834257
117 3 0 0 -0.00149712 -1.5341 0 0.750832 0.0834257
118 3 0 0 -0.00149758 -1.53457 0 0.750832 0.0834258
119 3 0 0 -0.00149803 -1.53502 0 0.750832 0.0834258
120 3 0 0 -0.00149846 -1.53547 0 0.750833 0.0834259
121 3 0 0 -0.00149889 -1.5359 0 0.750833 0.0834259
122 3 0 0 -0.00149929 -1.53632 0 0.750834 0.083426
123 3 0 0 -0.00149969 -1.53673 0 0.750834 0.083426
124 3 0 0 -0.00150007 -1.53712 0 0.750834 0.0834261
125 3 0 0 -0.00150044 -1.53749 0 0.750835 0.0834261
126 3 0 0 -0.0015008 -1.53786 0 0.750835 0.0834261
127 3 0 0 -0.00150114 -1.53821 0 0.750835 0.0834262
128 3 0 0 -0.00150146 -1.53854 0 0.750836 0.0834262
129 3 0 0 -0.00150177 -1.53886 0 0.750836 0.0834262
130 3 0 0 -0.00150207 -1.53916 0 0.750836 0.0834263
131 3 0 0 -0.00150235 -1.53945 0 0.750837 0.0834263
132 3 0 0 -0.00150262 -1.53973 0 0.750837 0.0834263
133 3 0 0 -0.00150287 -1.53998 0 0.750837 0.0834263
134 3 0 0 -0.00150311 -1.54023 0 0.750837 0.0834264
135 3 0 0 -0.00150333 -1.54045 0 0.750837 0.0834264
136 3 0 0 -0.00150353 -1.54066 0 0.750838 0.0834264
137 3 0 0 -0.00150372 -1.54086 0 0.750838 0.0834264