Title="LBM for phase change with fin"
dt=1 dx=1
VARIABLES="X","Y","U","V","T","H","fl","pa","Test"
ZONE T="BOX",I=150,J=150,F=POINT
0 0 0 0 -0.00136186 -1.39549 0 0.749742 0.0833047
1 0 0 0 -0.00136186 -1.39549 0 0.749742 0.0833047
2 0 0 0 -0.00136187 -1.3955 0 0.749742 0.0833047
3 0 0 0 -0.0013619 -1.39553 0 0.749743 0.0833047
4 0 0 0 -0.00136195 -1.39558 0 0.749743 0.0833047
5 0 0 0 -0.00136201 -1.39565 0 0.749743 0.0833047
6 0 0 0 -0.0013621 -1.39573 0 0.749743 0.0833048
7 0 0 0 -0.0013622 -1.39584 0 0.749743 0.0833048
8 0 0 0 -0.00136232 -1.39596 0 0.749743 0.0833048
9 0 0 0 -0.00136246 -1.3961 0 0.749743 0.0833048
10 0 0 0 -0.00136262 -1.39627 0 0.749744 0.0833049
11 0 0 0 -0.00136279 -1.39645 0 0.749744 0.0833049
12 0 0 0 -0.00136299 -1.39665 0 0.749744 0.0833049
13 0 0 0 -0.0013632 -1.39686 0 0.749745 0.083305
14 0 0 0 -0.00136343 -1.3971 0 0.749745 0.083305
15 0 0 0 -0.00136368 -1.39736 0 0.749745 0.083305
16 0 0 0 -0.00136395 -1.39763 0 0.749746 0.0833051
17 0 0 0 -0.00136423 -1.39792 0 0.749746 0.0833051
18 0 0 0 -0.00136454 -1.39824 0 0.749747 0.0833052
19 0 0 0 -0.00136486 -1.39857 0 0.749747 0.0833052
20 0 0 0 -0.0013652 -1.39891 0 0.749748 0.0833053
21 0 0 0 -0.00136556 -1.39928 0 0.749748 0.0833054
22 0 0 0 -0.00136593 -1.39966 0 0.749749 0.0833054
23 0 0 0 -0.00136633 -1.40007 0 0.749749 0.0833055
24 0 0 0 -0.00136674 -1.40049 0 0.74975 0.0833056
25 0 0 0 -0.00136716 -1.40093 0 0.74975 0.0833056
26 0 0 0 -0.00136761 -1.40138 0 0.749751 0.0833057
27 0 0 0 -0.00136807 -1.40186 0 0.749752 0.0833058
28 0 0 0 -0.00136855 -1.40235 0 0.749753 0.0833059
29 0 0 0 -0.00136905 -1.40286 0 0.749753 0.0833059
30 0 0 0 -0.00136957 -1.40339 0 0.749754 0.083306
31 0 0 0 -0.0013701 -1.40393 0 0.749755 0.0833061
32 0 0 0 -0.00137064 -1.40449 0 0.749756 0.0833062
33 0 0 0 -0.00137121 -1.40507 0 0.749756 0.0833063
34 0 0 0 -0.00137179 -1.40567 0 0.749757 0.0833064
35 0 0 0 -0.00137239 -1.40628 0 0.749758 0.0833065
36 0 0 0 -0.001373 -1.40691 0 0.749759 0.0833066
37 0 0 0 -0.00137363 -1.40755 0 0.74976 0.0833067
38 0 0 0 -0.00137427 -1.40821 0 0.749761 0.0833068
39 0 0 0 -0.00137493 -1.40889 0 0.749762 0.0833069
40 0 0 0 -0.00137561 -1.40958 0 0.749763 0.083307
41 0 0 0 -0.0013763 -1.41029 0 0.749764 0.0833071
42 0 0 0 -0.00137701 -1.41101 0 0.749765 0.0833072
43 0 0 0 -0.00137773 -1.41175 0 0.749766 0.0833073
44 0 0 0 -0.00137846 -1.41251 0 0.749767 0.0833074
45 0 0 0 -0.00137922 -1.41327 0 0.749768 0.0833076
46 0 0 0 -0.00137998 -1.41406 0 0.749769 0.0833077
47 0 0 0 -0.00138076 -1.41486 0 0.74977 0.0833078
48 0 0 0 -0.00138155 -1.41567 0 0.749771 0.0833079
49 0 0 0 -0.00138236 -1.4165 0 0.749772 0.083308
50 0 0 0 -0.00138318 -1.41734 0 0.749773 0.0833082
51 0 0 0 -0.00138401 -1.41819 0 0.749775 0.0833083
52 0 0 0 -0.00138486 -1.41906 0 0.749776 0.0833084
53 0 0 0 -0.00138572 -1.41994 0 0.749777 0.0833086
54 0 0 0 -0.00138659 -1.42083 0 0.749778 0.0833087
55 0 0 0 -0.00138747 -1.42174 0 0.749779 0.0833088
56 0 0 0 -0.00138837 -1.42265 0 0.74978 0.083309
57 0 0 0 -0.00138928 -1.42359 0 0.749782 0.0833091
58 0 0 0 -0.0013902 -1.42453 0 0.749783 0.0833092
59 0 0 0 -0.00139113 -1.42548 0 0.749784 0.0833094
60 0 0 0 -0.00139207 -1.42645 0 0.749785 0.0833095
61 0 0 0 -0.00139302 -1.42742 0 0.749787 0.0833097
62 0 0 0 -0.00139399 -1.42841 0 0.749788 0.0833098
63 0 0 0 -0.00139496 -1.42941 0 0.749789 0.0833099
64 0 0 0 -0.00139595 -1.43042 0 0.74979 0.0833101
65 0 0 0 -0.00139694 -1.43144 0 0.749792 0.0833102
66 0 0 0 -0.00139794 -1.43247 0 0.749793 0.0833104
67 0 0 0 -0.00139896 -1.4335 0 0.749794 0.0833105
68 0 0 0 -0.00139998 -1.43455 0 0.749796 0.0833107
69 0 0 0 -0.00140101 -1.4356 0 0.749797 0.0833108
70 0 0 0 -0.00140205 -1.43667 0 0.749798 0.083311
71 0 0 0 -0.00140309 -1.43774 0 0.7498 0.0833111
72 0 0 0 -0.00140414 -1.43882 0 0.749801 0.0833113
73 0 0 0 -0.00140521 -1.43991 0 0.749802 0.0833114
74 0 0 0 -0.00140627 -1.441 0 0.749804 0.0833115
75 0 0 0 -0.00140735 -1.4421 0 0.749805 0.0833117
76 0 0 0 -0.00140843 -1.44321 0 0.749806 0.0833118
77 0 0 0 -0.00140951 -1.44432 0 0.749808 0.083312
78 0 0 0 -0.00141061 -1.44544 0 0.749809 0.0833121
79 0 0 0 -0.0014117 -1.44656 0 0.74981 0.0833123
80 0 0 0 -0.0014128 -1.44769 0 0.749812 0.0833124
81 0 0 0 -0.00141391 -1.44883 0 0.749813 0.0833126
82 0 0 0 -0.00141502 -1.44996 0 0.749814 0.0833127
83 0 0 0 -0.00141613 -1.4511 0 0.749816 0.0833129
84 0 0 0 -0.00141724 -1.45224 0 0.749817 0.083313
85 0 0 0 -0.00141836 -1.45339 0 0.749818 0.0833132
86 0 0 0 -0.00141948 -1.45453 0 0.74982 0.0833133
87 0 0 0 -0.0014206 -1.45568 0 0.749821 0.0833135
88 0 0 0 -0.00142172 -1.45683 0 0.749822 0.0833136
89 0 0 0 -0.00142284 -1.45798 0 0.749824 0.0833138
90 0 0 0 -0.00142396 -1.45913 0 0.749825 0.0833139
91 0 0 0 -0.00142509 -1.46028 0 0.749826 0.083314
92 0 0 0 -0.0014262 -1.46143 0 0.749827 0.0833142
93 0 0 0 -0.00142732 -1.46257 0 0.749829 0.0833143
94 0 0 0 -0.00142844 -1.46371 0 0.74983 0.0833145
95 0 0 0 -0.00142955 -1.46485 0 0.749831 0.0833146
96 0 0 0 -0.00143066 -1.46599 0 0.749832 0.0833147
97 0 0 0 -0.00143176 -1.46712 0 0.749834 0.0833149
98 0 0 0 -0.00143286 -1.46825 0 0.749835 0.083315
99 0 0 0 -0.00143396 -1.46937 0 0.749836 0.0833152
100 0 0 0 -0.00143504 -1.47048 0 0.749837 0.0833153
101 0 0 0 -0.00143613 -1.47159 0 0.749838 0.0833154
102 0 0 0 -0.0014372 -1.47269 0 0.74984 0.0833155
103 0 0 0 -0.00143827 -1.47378 0 0.749841 0.0833157
104 0 0 0 -0.00143932 -1.47487 0 0.749842 0.0833158
105 0 0 0 -0.00144037 -1.47594 0 0.749843 0.0833159
106 0 0 0 -0.00144141 -1.477 0 0.749844 0.083316
107 0 0 0 -0.00144244 -1.47806 0 0.749845 0.0833162
108 0 0 0 -0.00144345 -1.4791 0 0.749846 0.0833163
109 0 0 0 -0.00144445 -1.48012 0 0.749847 0.0833164
110 0 0 0 -0.00144544 -1.48114 0 0.749848 0.0833165
111 0 0 0 -0.00144642 -1.48214 0 0.749849 0.0833166
112 0 0 0 -0.00144738 -1.48313 0 0.74985 0.0833167
113 0 0 0 -0.00144833 -1.4841 0 0.749851 0.0833168
114 0 0 0 -0.00144926 -1.48505 0 0.749852 0.0833169
115 0 0 0 -0.00145017 -1.48599 0 0.749853 0.083317
116 0 0 0 -0.00145107 -1.4869 0 0.749854 0.0833171
117 0 0 0 -0.00145195 -1.4878 0 0.749855 0.0833172
118 0 0 0 -0.00145281 -1.48868 0 0.749856 0.0833173
119 0 0 0 -0.00145365 -1.48955 0 0.749857 0.0833174
120 0 0 0 -0.00145447 -1.49038 0 0.749858 0.0833175
121 0 0 0 -0.00145527 -1.4912 0 0.749858 0.0833176
122 0 0 0 -0.00145604 -1.492 0 0.749859 0.0833177
123 0 0 0 -0.0014568 -1.49277 0 0.74986 0.0833178
124 0 0 0 -0.00145753 -1.49352 0 0.749861 0.0833179
125 0 0 0 -0.00145823 -1.49425 0 0.749861 0.0833179
126 0 0 0 -0.00145892 -1.49494 0 0.749862 0.083318
127 0 0 0 -0.00145957 -1.49562 0 0.749863 0.0833181
128 0 0 0 -0.00146021 -1.49627 0 0.749863 0.0833181
129 0 0 0 -0.00146081 -1.49689 0 0.749864 0.0833182
130 0 0 0 -0.00146139 -1.49748 0 0.749864 0.0833183
131 0 0 0 -0.00146194 -1.49804 0 0.749865 0.0833183
132 0 0 0 -0.00146246 -1.49858 0 0.749865 0.0833184
133 0 0 0 -0.00146295 -1.49908 0 0.749866 0.0833184
134 0 0 0 -0.00146342 -1.49956 0 0.749866 0.0833185
135 0 0 0 -0.00146385 -1.5 0 0.749867 0.0833185
136 0 0 0 -0.00146426 -1.50042 0 0.749867 0.0833186
137 0 0 0 -0.00146463 -1.5008 0 0.749867 0.0833186
138 0 0 0 -0.00146497 -1.50115 0 0.749868 0.0833186
139 0 0 0 -0.00146529 -1.50147 0 0.749868 0.0833187
140 0 0 0 -0.00146557 -1.50176 0 0.749868 0.0833187
141 0 0 0 -0.00146581 -1.50201 0 0.749869 0.0833187
142 0 0 0 -0.00146603 -1.50223 0 0.749869 0.0833188
143 0 0 0 -0.00146621 -1.50242 0 0.749869 0.0833188
144 0 0 0 -0.00146636 -1.50257 0 0.749869 0.0833188
145 0 0 0 -0.00146648 -1.50269 0 0.749869 0.0833188
146 0 0 0 -0.00146656 -1.50278 0 0.749869 0.0833188
147 0 0 0 -0.00146661 -1.50283 0 0.749869 0.0833188
148 0 0 0 -0.00146663 -1.50285 0 0.749869 0.0833188
149 0 0 0 -0.00146663 -1.50285 0 0.749869 0.0833188
0 1 0 0 -0.00136186 -1.39549 0 0.749742 0.0833047
1 1 0 0 -0.00136186 -1.39549 0 0.749742 0.0833047
2 1 0 0 -0.00136187 -1.3955 0 0.749742 0.0833047
3 1 0 0 -0.0013619 -1.39553 0 0.749742 0.0833047
4 1 0 0 -0.00136195 -1.39558 0 0.749743 0.0833047
5 1 0 0 -0.00136201 -1.39565 0 0.749743 0.0833047
6 1 0 0 -0.0013621 -1.39573 0 0.749743 0.0833048
7 1 0 0 -0.0013622 -1.39584 0 0.749743 0.0833048
8 1 0 0 -0.00136232 -1.39596 0 0.749743 0.0833048
9 1 0 0 -0.00136246 -1.3961 0 0.749743 0.0833048
10 1 0 0 -0.00136262 -1.39627 0 0.749744 0.0833049
11 1 0 0 -0.00136279 -1.39645 0 0.749744 0.0833049
12 1 0 0 -0.00136299 -1.39665 0 0.749744 0.0833049
13 1 0 0 -0.0013632 -1.39686 0 0.749744 0.083305
14 1 0 0 -0.00136343 -1.3971 0 0.749745 0.083305
15 1 0 0 -0.00136368 -1.39736 0 0.749745 0.083305
16 1 0 0 -0.00136395 -1.39763 0 0.749746 0.0833051
17 1 0 0 -0.00136423 -1.39792 0 0.749746 0.0833051
18 1 0 0 -0.00136454 -1.39824 0 0.749747 0.0833052
19 1 0 0 -0.00136486 -1.39857 0 0.749747 0.0833052
20 1 0 0 -0.0013652 -1.39891 0 0.749748 0.0833053
21 1 0 0 -0.00136556 -1.39928 0 0.749748 0.0833054
22 1 0 0 -0.00136593 -1.39966 0 0.749749 0.0833054
23 1 0 0 -0.00136633 -1.40007 0 0.749749 0.0833055
24 1 0 0 -0.00136674 -1.40049 0 0.74975 0.0833056
25 1 0 0 -0.00136716 -1.40093 0 0.74975 0.0833056
26 1 0 0 -0.00136761 -1.40138 0 0.749751 0.0833057
27 1 0 0 -0.00136807 -1.40186 0 0.749752 0.0833058
28 1 0 0 -0.00136855 -1.40235 0 0.749752 0.0833059
29 1 0 0 -0.00136905 -1.40286 0 0.749753 0.0833059
30 1 0 0 -0.00136957 -1.40339 0 0.749754 0.083306
31 1 0 0 -0.0013701 -1.40393 0 0.749755 0.0833061
32 1 0 0 -0.00137064 -1.40449 0 0.749756 0.0833062
33 1 0 0 -0.00137121 -1.40507 0 0.749756 0.0833063
34 1 0 0 -0.00137179 -1.40567 0 0.749757 0.0833064
35 1 0 0 -0.00137239 -1.40628 0 0.749758 0.0833065
36 1 0 0 -0.001373 -1.40691 0 0.749759 0.0833066
37 1 0 0 -0.00137363 -1.40755 0 0.74976 0.0833067
38 1 0 0 -0.00137427 -1.40821 0 0.749761 0.0833068
39 1 0 0 -0.00137493 -1.40889 0 0.749762 0.0833069
40 1 0 0 -0.00137561 -1.40958 0 0.749763 0.083307
41 1 0 0 -0.0013763 -1.41029 0 0.749764 0.0833071
42 1 0 0 -0.00137701 -1.41101 0 0.749765 0.0833072
43 1 0 0 -0.00137773 -1.41175 0 0.749766 0.0833073
44 1 0 0 -0.00137846 -1.41251 0 0.749767 0.0833074
45 1 0 0 -0.00137922 -1.41327 0 0.749768 0.0833076
46 1 0 0 -0.00137998 -1.41406 0 0.749769 0.0833077
47 1 0 0 -0.00138076 -1.41486 0 0.74977 0.0833078
48 1 0 0 -0.00138155 -1.41567 0 0.749771 0.0833079
49 1 0 0 -0.00138236 -1.4165 0 0.749772 0.083308
50 1 0 0 -0.00138318 -1.41734 0 0.749773 0.0833082
51 1 0 0 -0.00138401 -1.41819 0 0.749774 0.0833083
52 1 0 0 -0.00138486 -1.41906 0 0.749776 0.0833084
53 1 0 0 -0.00138572 -1.41994 0 0.749777 0.0833086
54 1 0 0 -0.00138659 -1.42083 0 0.749778 0.0833087
55 1 0 0 -0.00138747 -1.42174 0 0.749779 0.0833088
56 1 0 0 -0.00138837 -1.42265 0 0.74978 0.083309
57 1 0 0 -0.00138928 -1.42359 0 0.749782 0.0833091
58 1 0 0 -0.0013902 -1.42453 0 0.749783 0.0833092
59 1 0 0 -0.00139113 -1.42548 0 0.749784 0.0833094
60 1 0 0 -0.00139207 -1.42645 0 0.749785 0.0833095
61 1 0 0 -0.00139302 -1.42742 0 0.749787 0.0833097
62 1 0 0 -0.00139399 -1.42841 0 0.749788 0.0833098
63 1 0 0 -0.00139496 -1.42941 0 0.749789 0.0833099
64 1 0 0 -0.00139595 -1.43042 0 0.74979 0.0833101
65 1 0 0 -0.00139694 -1.43144 0 0.749792 0.0833102
66 1 0 0 -0.00139794 -1.43247 0 0.749793 0.0833104
67 1 0 0 -0.00139896 -1.4335 0 0.749794 0.0833105
68 1 0 0 -0.00139998 -1.43455 0 0.749796 0.0833107
69 1 0 0 -0.00140101 -1.4356 0 0.749797 0.0833108
70 1 0 0 -0.00140205 -1.43667 0 0.749798 0.083311
71 1 0 0 -0.00140309 -1.43774 0 0.7498 0.0833111
72 1 0 0 -0.00140414 -1.43882 0 0.749801 0.0833113
73 1 0 0 -0.00140521 -1.43991 0 0.749802 0.0833114
74 1 0 0 -0.00140627 -1.441 0 0.749804 0.0833115
75 1 0 0 -0.00140735 -1.4421 0 0.749805 0.0833117
76 1 0 0 -0.00140843 -1.44321 0 0.749806 0.0833118
77 1 0 0 -0.00140951 -1.44432 0 0.749808 0.083312
78 1 0 0 -0.00141061 -1.44544 0 0.749809 0.0833121
79 1 0 0 -0.0014117 -1.44656 0 0.74981 0.0833123
80 1 0 0 -0.0014128 -1.44769 0 0.749812 0.0833124
81 1 0 0 -0.00141391 -1.44883 0 0.749813 0.0833126
82 1 0 0 -0.00141502 -1.44996 0 0.749814 0.0833127
83 1 0 0 -0.00141613 -1.4511 0 0.749816 0.0833129
84 1 0 0 -0.00141724 -1.45224 0 0.749817 0.083313
85 1 0 0 -0.00141836 -1.45339 0 0.749818 0.0833132
86 1 0 0 -0.00141948 -1.45453 0 0.74982 0.0833133
87 1 0 0 -0.0014206 -1.45568 0 0.749821 0.0833135
88 1 0 0 -0.00142172 -1.45683 0 0.749822 0.0833136
89 1 0 0 -0.00142284 -1.45798 0 0.749824 0.0833138
90 1 0 0 -0.00142396 -1.45913 0 0.749825 0.0833139
91 1 0 0 -0.00142509 -1.46028 0 0.749826 0.083314
92 1 0 0 -0.0014262 -1.46143 0 0.749827 0.0833142
93 1 0 0 -0.00142732 -1.46257 0 0.749829 0.0833143
94 1 0 0 -0.00142844 -1.46371 0 0.74983 0.0833145
95 1 0 0 -0.00142955 -1.46485 0 0.749831 0.0833146
96 1 0 0 -0.00143066 -1.46599 0 0.749832 0.0833147
97 1 0 0 -0.00143176 -1.46712 0 0.749834 0.0833149
98 1 0 0 -0.00143286 -1.46825 0 0.749835 0.083315
99 1 0 0 -0.00143396 -1.46937 0 0.749836 0.0833152
100 1 0 0 -0.00143504 -1.47048 0 0.749837 0.0833153
101 1 0 0 -0.00143613 -1.47159 0 0.749838 0.0833154
102 1 0 0 -0.0014372 -1.47269 0 0.74984 0.0833155
103 1 0 0 -0.00143827 -1.47378 0 0.749841 0.0833157
104 1 0 0 -0.00143932 -1.47487 0 0.749842 0.0833158
105 1 0 0 -0.00144037 -1.47594 0 0.749843 0.0833159
106 1 0 0 -0.00144141 -1.477 0 0.749844 0.083316
107 1 0 0 -0.00144244 -1.47806 0 0.749845 0.0833162
108 1 0 0 -0.00144345 -1.4791 0 0.749846 0.0833163
109 1 0 0 -0.00144445 -1.48012 0 0.749847 0.0833164
110 1 0 0 -0.00144544 -1.48114 0 0.749848 0.0833165
111 1 0 0 -0.00144642 -1.48214 0 0.749849 0.0833166
112 1 0 0 -0.00144738 -1.48313 0 0.74985 0.0833167
113 1 0 0 -0.00144833 -1.4841 0 0.749851 0.0833168
114 1 0 0 -0.00144926 -1.48505 0 0.749852 0.0833169
115 1 0 0 -0.00145017 -1.48599 0 0.749853 0.083317
116 1 0 0 -0.00145107 -1.4869 0 0.749854 0.0833171
117 1 0 0 -0.00145195 -1.4878 0 0.749855 0.0833172
118 1 0 0 -0.00145281 -1.48868 0 0.749856 0.0833173
119 1 0 0 -0.00145365 -1.48955 0 0.749857 0.0833174
120 1 0 0 -0.00145447 -1.49039 0 0.749857 0.0833175
121 1 0 0 -0.00145527 -1.4912 0 0.749858 0.0833176
122 1 0 0 -0.00145604 -1.492 0 0.749859 0.0833177
123 1 0 0 -0.0014568 -1.49277 0 0.74986 0.0833178
124 1 0 0 -0.00145753 -1.49352 0 0.74986 0.0833179
125 1 0 0 -0.00145823 -1.49425 0 0.749861 0.0833179
126 1 0 0 -0.00145892 -1.49494 0 0.749862 0.083318
127 1 0 0 -0.00145957 -1.49562 0 0.749862 0.0833181
128 1 0 0 -0.00146021 -1.49627 0 0.749863 0.0833181
129 1 0 0 -0.00146081 -1.49689 0 0.749864 0.0833182
130 1 0 0 -0.00146139 -1.49748 0 0.749864 0.0833183
131 1 0 0 -0.00146194 -1.49804 0 0.749865 0.0833183
132 1 0 0 -0.00146246 -1.49858 0 0.749865 0.0833184
133 1 0 0 -0.00146295 -1.49908 0 0.749866 0.0833184
134 1 0 0 -0.00146342 -1.49956 0 0.749866 0.0833185
135 1 0 0 -0.00146385 -1.5 0 0.749867 0.0833185
136 1 0 0 -0.00146426 -1.50042 0 0.749867 0.0833186
137 1 0 0 -0.00146463 -1.5008 0 0.749867 0.0833186
138 1 0 0 -0.00146497 -1.50115 0 0.749868 0.0833186
139 1 0 0 -0.00146529 -1.50147 0 0.749868 0.0833187
140 1 0 0 -0.00146557 -1.50176 0 0.749868 0.0833187
141 1 0 0 -0.00146581 -1.50201 0 0.749868 0.0833187
142 1 0 0 -0.00146603 -1.50223 0 0.749869 0.0833188
143 1 0 0 -0.00146621 -1.50242 0 0.749869 0.0833188
144 1 0 0 -0.00146636 -1.50257 0 0.749869 0.0833188
145 1 0 0 -0.00146648 -1.50269 0 0.749869 0.0833188
146 1 0 0 -0.00146656 -1.50278 0 0.749869 0.0833188
147 1 0 0 -0.00146661 -1.50283 0 0.749869 0.0833188
148 1 0 0 -0.00146663 -1.50285 0 0.749869 0.0833188
149 1 0 0 -0.00146663 -1.50285 0 0.749869 0.0833188
0 2 0 0 -0.00136185 -1.39548 0 0.749742 0.0833047
1 2 0 0 -0.00136185 -1.39548 0 0.749742 0.0833047
2 2 0 0 -0.00136186 -1.39549 0 0.749742 0.0833047
3 2 0 0 -0.00136189 -1.39552 0 0.749742 0.0833047
4 2 0 0 -0.00136194 -1.39557 0 0.749742 0.0833047
5 2 0 0 -0.001362 -1.39564 0 0.749742 0.0833047
6 2 0 0 -0.00136209 -1.39572 0 0.749742 0.0833047
7 2 0 0 -0.00136219 -1.39583 0 0.749742 0.0833047
8 2 0 0 -0.00136231 -1.39595 0 0.749743 0.0833048
9 2 0 0 -0.00136245 -1.39609 0 0.749743 0.0833048
10 2 0 0 -0.00136261 -1.39626 0 0.749743 0.0833048
11 2 0 0 -0.00136278 -1.39644 0 0.749743 0.0833048
12 2 0 0 -0.00136298 -1.39664 0 0.749744 0.0833049
13 2 0 0 -0.00136319 -1.39685 0 0.749744 0.0833049
14 2 0 0 -0.00136342 -1.39709 0 0.749744 0.0833049
15 2 0 0 -0.00136367 -1.39735 0 0.749745 0.083305
16 2 0 0 -0.00136394 -1.39762 0 0.749745 0.083305
17 2 0 0 -0.00136422 -1.39791 0 0.749746 0.0833051
18 2 0 0 -0.00136453 -1.39822 0 0.749746 0.0833051
19 2 0 0 -0.00136485 -1.39855 0 0.749747 0.0833052
20 2 0 0 -0.00136519 -1.3989 0 0.749747 0.0833052
21 2 0 0 -0.00136555 -1.39927 0 0.749748 0.0833053
22 2 0 0 -0.00136592 -1.39965 0 0.749748 0.0833054
23 2 0 0 -0.00136632 -1.40006 0 0.749749 0.0833054
24 2 0 0 -0.00136673 -1.40048 0 0.749749 0.0833055
25 2 0 0 -0.00136715 -1.40092 0 0.74975 0.0833056
26 2 0 0 -0.0013676 -1.40137 0 0.749751 0.0833056
27 2 0 0 -0.00136806 -1.40185 0 0.749751 0.0833057
28 2 0 0 -0.00136854 -1.40234 0 0.749752 0.0833058
29 2 0 0 -0.00136904 -1.40285 0 0.749753 0.0833059
30 2 0 0 -0.00136956 -1.40338 0 0.749754 0.083306
31 2 0 0 -0.00137009 -1.40392 0 0.749754 0.0833061
32 2 0 0 -0.00137063 -1.40448 0 0.749755 0.0833061
33 2 0 0 -0.0013712 -1.40506 0 0.749756 0.0833062
34 2 0 0 -0.00137178 -1.40566 0 0.749757 0.0833063
35 2 0 0 -0.00137238 -1.40627 0 0.749758 0.0833064
36 2 0 0 -0.00137299 -1.4069 0 0.749759 0.0833065
37 2 0 0 -0.00137362 -1.40754 0 0.749759 0.0833066
38 2 0 0 -0.00137426 -1.4082 0 0.74976 0.0833067
39 2 0 0 -0.00137492 -1.40888 0 0.749761 0.0833068
40 2 0 0 -0.0013756 -1.40957 0 0.749762 0.0833069
41 2 0 0 -0.00137629 -1.41028 0 0.749763 0.0833071
42 2 0 0 -0.001377 -1.411 0 0.749764 0.0833072
43 2 0 0 -0.00137772 -1.41174 0 0.749765 0.0833073
44 2 0 0 -0.00137846 -1.4125 0 0.749766 0.0833074
45 2 0 0 -0.00137921 -1.41327 0 0.749767 0.0833075
46 2 0 0 -0.00137997 -1.41405 0 0.749768 0.0833076
47 2 0 0 -0.00138075 -1.41485 0 0.74977 0.0833078
48 2 0 0 -0.00138154 -1.41566 0 0.749771 0.0833079
49 2 0 0 -0.00138235 -1.41649 0 0.749772 0.083308
50 2 0 0 -0.00138317 -1.41733 0 0.749773 0.0833081
51 2 0 0 -0.001384 -1.41818 0 0.749774 0.0833083
52 2 0 0 -0.00138485 -1.41905 0 0.749775 0.0833084
53 2 0 0 -0.00138571 -1.41993 0 0.749776 0.0833085
54 2 0 0 -0.00138658 -1.42082 0 0.749778 0.0833086
55 2 0 0 -0.00138747 -1.42173 0 0.749779 0.0833088
56 2 0 0 -0.00138836 -1.42265 0 0.74978 0.0833089
57 2 0 0 -0.00138927 -1.42358 0 0.749781 0.0833091
58 2 0 0 -0.00139019 -1.42452 0 0.749782 0.0833092
59 2 0 0 -0.00139112 -1.42548 0 0.749784 0.0833093
60 2 0 0 -0.00139206 -1.42644 0 0.749785 0.0833095
61 2 0 0 -0.00139302 -1.42742 0 0.749786 0.0833096
62 2 0 0 -0.00139398 -1.42841 0 0.749787 0.0833097
63 2 0 0 -0.00139496 -1.4294 0 0.749789 0.0833099
64 2 0 0 -0.00139594 -1.43041 0 0.74979 0.08331
65 2 0 0 -0.00139693 -1.43143 0 0.749791 0.0833102
66 2 0 0 -0.00139794 -1.43246 0 0.749793 0.0833103
67 2 0 0 -0.00139895 -1.4335 0 0.749794 0.0833105
68 2 0 0 -0.00139997 -1.43454 0 0.749795 0.0833106
69 2 0 0 -0.001401 -1.4356 0 0.749797 0.0833108
70 2 0 0 -0.00140204 -1.43666 0 0.749798 0.0833109
71 2 0 0 -0.00140309 -1.43774 0 0.749799 0.0833111
72 2 0 0 -0.00140414 -1.43882 0 0.749801 0.0833112
73 2 0 0 -0.0014052 -1.4399 0 0.749802 0.0833114
74 2 0 0 -0.00140627 -1.441 0 0.749803 0.0833115
75 2 0 0 -0.00140734 -1.4421 0 0.749805 0.0833117
76 2 0 0 -0.00140843 -1.44321 0 0.749806 0.0833118
77 2 0 0 -0.00140951 -1.44432 0 0.749807 0.0833119
78 2 0 0 -0.0014106 -1.44544 0 0.749809 0.0833121
79 2 0 0 -0.0014117 -1.44656 0 0.74981 0.0833122
80 2 0 0 -0.0014128 -1.44769 0 0.749811 0.0833124
81 2 0 0 -0.00141391 -1.44882 0 0.749813 0.0833125
82 2 0 0 -0.00141502 -1.44996 0 0.749814 0.0833127
83 2 0 0 -0.00141613 -1.4511 0 0.749815 0.0833128
84 2 0 0 -0.00141724 -1.45224 0 0.749817 0.083313
85 2 0 0 -0.00141836 -1.45339 0 0.749818 0.0833131
86 2 0 0 -0.00141948 -1.45453 0 0.749819 0.0833133
87 2 0 0 -0.0014206 -1.45568 0 0.749821 0.0833134
88 2 0 0 -0.00142172 -1.45683 0 0.749822 0.0833136
89 2 0 0 -0.00142284 -1.45798 0 0.749823 0.0833137
90 2 0 0 -0.00142397 -1.45913 0 0.749824 0.0833139
91 2 0 0 -0.00142509 -1.46028 0 0.749826 0.083314
92 2 0 0 -0.00142621 -1.46143 0 0.749827 0.0833141
93 2 0 0 -0.00142732 -1.46257 0 0.749828 0.0833143
94 2 0 0 -0.00142844 -1.46372 0 0.74983 0.0833144
95 2 0 0 -0.00142955 -1.46486 0 0.749831 0.0833146
96 2 0 0 -0.00143066 -1.46599 0 0.749832 0.0833147
97 2 0 0 -0.00143177 -1.46712 0 0.749833 0.0833148
98 2 0 0 -0.00143287 -1.46825 0 0.749834 0.083315
99 2 0 0 -0.00143396 -1.46937 0 0.749836 0.0833151
100 2 0 0 -0.00143505 -1.47049 0 0.749837 0.0833152
101 2 0 0 -0.00143613 -1.4716 0 0.749838 0.0833154
102 2 0 0 -0.00143721 -1.4727 0 0.749839 0.0833155
103 2 0 0 -0.00143827 -1.47379 0 0.74984 0.0833156
104 2 0 0 -0.00143933 -1.47487 0 0.749841 0.0833157
105 2 0 0 -0.00144038 -1.47595 0 0.749843 0.0833159
106 2 0 0 -0.00144142 -1.47701 0 0.749844 0.083316
107 2 0 0 -0.00144244 -1.47806 0 0.749845 0.0833161
108 2 0 0 -0.00144346 -1.4791 0 0.749846 0.0833162
109 2 0 0 -0.00144446 -1.48013 0 0.749847 0.0833163
110 2 0 0 -0.00144545 -1.48115 0 0.749848 0.0833165
111 2 0 0 -0.00144643 -1.48215 0 0.749849 0.0833166
112 2 0 0 -0.00144739 -1.48313 0 0.74985 0.0833167
113 2 0 0 -0.00144834 -1.4841 0 0.749851 0.0833168
114 2 0 0 -0.00144927 -1.48506 0 0.749852 0.0833169
115 2 0 0 -0.00145018 -1.486 0 0.749853 0.083317
116 2 0 0 -0.00145108 -1.48691 0 0.749854 0.0833171
117 2 0 0 -0.00145196 -1.48782 0 0.749855 0.0833172
118 2 0 0 -0.00145282 -1.4887 0 0.749855 0.0833173
119 2 0 0 -0.00145366 -1.48956 0 0.749856 0.0833174
120 2 0 0 -0.00145448 -1.4904 0 0.749857 0.0833175
121 2 0 0 -0.00145528 -1.49122 0 0.749858 0.0833176
122 2 0 0 -0.00145605 -1.49201 0 0.749859 0.0833176
123 2 0 0 -0.00145681 -1.49279 0 0.749859 0.0833177
124 2 0 0 -0.00145754 -1.49353 0 0.74986 0.0833178
125 2 0 0 -0.00145825 -1.49426 0 0.749861 0.0833179
126 2 0 0 -0.00145893 -1.49496 0 0.749861 0.083318
127 2 0 0 -0.00145959 -1.49563 0 0.749862 0.083318
128 2 0 0 -0.00146022 -1.49628 0 0.749863 0.0833181
129 2 0 0 -0.00146083 -1.4969 0 0.749863 0.0833182
130 2 0 0 -0.0014614 -1.49749 0 0.749864 0.0833182
131 2 0 0 -0.00146195 -1.49806 0 0.749864 0.0833183
132 2 0 0 -0.00146248 -1.49859 0 0.749865 0.0833183
133 2 0 0 -0.00146297 -1.4991 0 0.749865 0.0833184
134 2 0 0 -0.00146344 -1.49958 0 0.749866 0.0833184
135 2 0 0 -0.00146387 -1.50002 0 0.749866 0.0833185
136 2 0 0 -0.00146427 -1.50044 0 0.749867 0.0833185
137 2 0 0 -0.00146465 -1.50082 0 0.749867 0.0833186
138 2 0 0 -0.00146499 -1.50117 0 0.749867 0.0833186
139 2 0 0 -0.0014653 -1.50149 0 0.749868 0.0833186
140 2 0 0 -0.00146558 -1.50178 0 0.749868 0.0833187
141 2 0 0 -0.00146583 -1.50203 0 0.749868 0.0833187
142 2 0 0 -0.00146605 -1.50225 0 0.749868 0.0833187
143 2 0 0 -0.00146623 -1.50244 0 0.749868 0.0833187
144 2 0 0 -0.00146638 -1.50259 0 0.749869 0.0833187
145 2 0 0 -0.0014665 -1.50271 0 0.749869 0.0833188
146 2 0 0 -0.00146658 -1.5028 0 0.749869 0.0833188
147 2 0 0 -0.00146663 -1.50285 0 0.749869 0.0833188
148 2 0 0 -0.00146665 -1.50287 0 0.749869 0.0833188
149 2 0 0 -0.00146665 -1.50287 0 0.749869 0.0833188
0 3 0 0 -0.00136182 -1.39545 0 0.749741 0.0833046
1 3 0 0 -0.00136182 -1.39545 0 0.749741 0.0833046
2 3 0 0 -0.00136183 -1.39546 0 0.749741 0.0833046
3 3 0 0 -0.00136186 -1.39549 0 0.749741 0.0833046
4 3 0 0 -0.0013619 -1.39554 0 0.749741 0.0833046
5 3 0 0 -0.00136197 -1.3956 0 0.749741 0.0833046
6 3 0 0 -0.00136205 -1.39569 0 0.749741 0.0833046
7 3 0 0 -0.00136216 -1.3958 0 0.749741 0.0833046
8 3 0 0 -0.00136228 -1.39592 0 0.749742 0.0833046
9 3 0 0 -0.00136242 -1.39606 0 0.749742 0.0833047
10 3 0 0 -0.00136257 -1.39622 0 0.749742 0.0833047
11 3 0 0 -0.00136275 -1.3964 0 0.749742 0.0833047
12 3 0 0 -0.00136295 -1.3966 0 0.749743 0.0833048
13 3 0 0 -0.00136316 -1.39682 0 0.749743 0.0833048
14 3 0 0 -0.00136339 -1.39706 0 0.749743 0.0833048
15 3 0 0 -0.00136364 -1.39731 0 0.749744 0.0833049
16 3 0 0 -0.00136391 -1.39759 0 0.749744 0.0833049
17 3 0 0 -0.00136419 -1.39788 0 0.749745 0.083305
18 3 0 0 -0.0013645 -1.39819 0 0.749745 0.083305
19 3 0 0 -0.00136482 -1.39852 0 0.749746 0.0833051
20 3 0 0 -0.00136516 -1.39887 0 0.749746 0.0833051
21 3 0 0 -0.00136552 -1.39924 0 0.749747 0.0833052
22 3 0 0 -0.00136589 -1.39962 0 0.749747 0.0833053
23 3 0 0 -0.00136629 -1.40003 0 0.749748 0.0833053
24 3 0 0 -0.0013667 -1.40045 0 0.749748 0.0833054
25 3 0 0 -0.00136712 -1.40089 0 0.749749 0.0833055
26 3 0 0 -0.00136757 -1.40134 0 0.74975 0.0833055
27 3 0 0 -0.00136803 -1.40182 0 0.74975 0.0833056
28 3 0 0 -0.00136851 -1.40231 0 0.749751 0.0833057
29 3 0 0 -0.00136901 -1.40282 0 0.749752 0.0833058
30 3 0 0 -0.00136953 -1.40335 0 0.749753 0.0833059
31 3 0 0 -0.00137006 -1.40389 0 0.749753 0.0833059
32 3 0 0 -0.00137061 -1.40445 0 0.749754 0.083306
33 3 0 0 -0.00137117 -1.40503 0 0.749755 0.0833061
34 3 0 0 -0.00137175 -1.40563 0 0.749756 0.0833062
35 3 0 0 -0.00137235 -1.40624 0 0.749757 0.0833063
36 3 0 0 -0.00137296 -1.40687 0 0.749758 0.0833064
37 3 0 0 -0.00137359 -1.40751 0 0.749758 0.0833065
38 3 0 0 -0.00137424 -1.40817 0 0.749759 0.0833066
39 3 0 0 -0.0013749 -1.40885 0 0.74976 0.0833067
40 3 0 0 -0.00137557 -1.40954 0 0.749761 0.0833068
41 3 0 0 -0.00137627 -1.41025 0 0.749762 0.0833069
42 3 0 0 -0.00137697 -1.41098 0 0.749763 0.0833071
43 3 0 0 -0.00137769 -1.41172 0 0.749764 0.0833072
44 3 0 0 -0.00137843 -1.41247 0 0.749765 0.0833073
45 3 0 0 -0.00137918 -1.41324 0 0.749766 0.0833074
46 3 0 0 -0.00137995 -1.41403 0 0.749767 0.0833075
47 3 0 0 -0.00138073 -1.41482 0 0.749769 0.0833076
48 3 0 0 -0.00138152 -1.41564 0 0.74977 0.0833078
49 3 0 0 -0.00138233 -1.41646 0 0.749771 0.0833079
50 3 0 0 -0.00138315 -1.4173 0 0.749772 0.083308
51 3 0 0 -0.00138398 -1.41816 0 0.749773 0.0833081
52 3 0 0 -0.00138483 -1.41903 0 0.749774 0.0833083
53 3 0 0 -0.00138569 -1.41991 0 0.749775 0.0833084
54 3 0 0 -0.00138656 -1.4208 0 0.749777 0.0833085
55 3 0 0 -0.00138744 -1.42171 0 0.749778 0.0833087
56 3 0 0 -0.00138834 -1.42263 0 0.749779 0.0833088
57 3 0 0 -0.00138925 -1.42356 0 0.74978 0.0833089
58 3 0 0 -0.00139017 -1.4245 0 0.749781 0.0833091
59 3 0 0 -0.0013911 -1.42546 0 0.749783 0.0833092
60 3 0 0 -0.00139205 -1.42642 0 0.749784 0.0833094
61 3 0 0 -0.001393 -1.4274 0 0.749785 0.0833095
62 3 0 0 -0.00139396 -1.42839 0 0.749786 0.0833096
63 3 0 0 -0.00139494 -1.42939 0 0.749788 0.0833098
64 3 0 0 -0.00139592 -1.4304 0 0.749789 0.0833099
65 3 0 0 -0.00139692 -1.43142 0 0.74979 0.0833101
66 3 0 0 -0.00139792 -1.43244 0 0.749792 0.0833102
67 3 0 0 -0.00139894 -1.43348 0 0.749793 0.0833104
68 3 0 0 -0.00139996 -1.43453 0 0.749794 0.0833105
69 3 0 0 -0.00140099 -1.43559 0 0.749796 0.0833107
70 3 0 0 -0.00140203 -1.43665 0 0.749797 0.0833108
71 3 0 0 -0.00140308 -1.43772 0 0.749798 0.083311
72 3 0 0 -0.00140413 -1.43881 0 0.7498 0.0833111
73 3 0 0 -0.00140519 -1.43989 0 0.749801 0.0833112
74 3 0 0 -0.00140626 -1.44099 0 0.749802 0.0833114
75 3 0 0 -0.00140734 -1.44209 0 0.749804 0.0833115
76 3 0 0 -0.00140842 -1.4432 0 0.749805 0.0833117
77 3 0 0 -0.0014095 -1.44431 0 0.749806 0.0833118
78 3 0 0 -0.0014106 -1.44543 0 0.749808 0.083312
79 3 0 0 -0.00141169 -1.44656 0 0.749809 0.0833121
80 3 0 0 -0.0014128 -1.44769 0 0.74981 0.0833123
81 3 0 0 -0.0014139 -1.44882 0 0.749812 0.0833124
82 3 0 0 -0.00141501 -1.44996 0 0.749813 0.0833126
83 3 0 0 -0.00141613 -1.4511 0 0.749814 0.0833127
84 3 0 0 -0.00141724 -1.45224 0 0.749816 0.0833129
85 3 0 0 -0.00141836 -1.45339 0 0.749817 0.083313
86 3 0 0 -0.00141948 -1.45453 0 0.749818 0.0833132
87 3 0 0 -0.0014206 -1.45568 0 0.74982 0.0833133
88 3 0 0 -0.00142172 -1.45683 0 0.749821 0.0833135
89 3 0 0 -0.00142285 -1.45798 0 0.749822 0.0833136
90 3 0 0 -0.00142397 -1.45913 0 0.749824 0.0833138
91 3 0 0 -0.00142509 -1.46028 0 0.749825 0.0833139
92 3 0 0 -0.00142621 -1.46143 0 0.749826 0.083314
93 3 0 0 -0.00142733 -1.46258 0 0.749827 0.0833142
94 3 0 0 -0.00142845 -1.46372 0 0.749829 0.0833143
95 3 0 0 -0.00142956 -1.46486 0 0.74983 0.0833145
96 3 0 0 -0.00143067 -1.466 0 0.749831 0.0833146
97 3 0 0 -0.00143178 -1.46713 0 0.749832 0.0833147
98 3 0 0 -0.00143288 -1.46826 0 0.749834 0.0833149
99 3 0 0 -0.00143397 -1.46938 0 0.749835 0.083315
100 3 0 0 -0.00143506 -1.4705 0 0.749836 0.0833151
101 3 0 0 -0.00143614 -1.47161 0 0.749837 0.0833153
102 3 0 0 -0.00143722 -1.47271 0 0.749838 0.0833154
103 3 0 0 -0.00143829 -1.47381 0 0.749839 0.0833155
104 3 0 0 -0.00143935 -1.47489 0 0.749841 0.0833156
105 3 0 0 -0.0014404 -1.47597 0 0.749842 0.0833158
106 3 0 0 -0.00144143 -1.47703 0 0.749843 0.0833159
107 3 0 0 -0.00144246 -1.47808 0 0.749844 0.083316
108 3 0 0 -0.00144348 -1.47913 0 0.749845 0.0833161
109 3 0 0 -0.00144448 -1.48016 0 0.749846 0.0833162
110 3 0 0 -0.00144548 -1.48117 0 0.749847 0.0833164
111 3 0 0 -0.00144645 -1.48217 0 0.749848 0.0833165
112 3 0 0 -0.00144742 -1.48316 0 0.749849 0.0833166
113 3 0 0 -0.00144836 -1.48413 0 0.74985 0.0833167
114 3 0 0 -0.0014493 -1.48509 0 0.749851 0.0833168
115 3 0 0 -0.00145021 -1.48603 0 0.749852 0.0833169
116 3 0 0 -0.00145111 -1.48695 0 0.749853 0.083317
117 3 0 0 -0.00145199 -1.48785 0 0.749854 0.0833171
118 3 0 0 -0.00145285 -1.48873 0 0.749855 0.0833172
119 3 0 0 -0.00145369 -1.48959 0 0.749855 0.0833173
120 3 0 0 -0.00145451 -1.49043 0 0.749856 0.0833174
121 3 0 0 -0.00145531 -1.49125 0 0.749857 0.0833175
122 3 0 0 -0.00145609 -1.49205 0 0.749858 0.0833175
123 3 0 0 -0.00145685 -1.49282 0 0.749858 0.0833176
124 3 0 0 -0.00145758 -1.49357 0 0.749859 0.0833177
125 3 0 0 -0.00145829 -1.4943 0 0.74986 0.0833178
126 3 0 0 -0.00145897 -1.495 0 0.749861 0.0833179
127 3 0 0 -0.00145963 -1.49568 0 0.749861 0.0833179
128 3 0 0 -0.00146026 -1.49632 0 0.749862 0.083318
129 3 0 0 -0.00146087 -1.49695 0 0.749862 0.0833181
130 3 0 0 -0.00146145 -1.49754 0 0.749863 0.0833181
131 3 0 0 -0.001462 -1.4981 0 0.749863 0.0833182
132 3 0 0 -0.00146252 -1.49864 0 0.749864 0.0833182
133 3 0 0 -0.00146302 -1.49915 0 0.749864 0.0833183
134 3 0 0 -0.00146348 -1.49962 0 0.749865 0.0833183
135 3 0 0 -0.00146392 -1.50007 0 0.749865 0.0833184
136 3 0 0 -0.00146432 -1.50048 0 0.749866 0.0833184