Title="LBM for phase change with fin"
dt=1 dx=1
VARIABLES="X","Y","U","V","T","H","fl","pa","Test"
ZONE T="BOX",I=150,J=150,F=POINT
0 0 0 0 0.285004 10539 1 0.843371 0.0937079
1 0 0 0 0.285004 10539 1 0.843371 0.0937079
2 0 0 0 0.277022 10530.8 1 0.843369 0.0937074
3 0 0 0 0.267675 10521.2 1 0.843368 0.0937072
4 0 0 0 0.25869 10512 1 0.843368 0.093707
5 0 0 0 0.249825 10502.9 1 0.843368 0.0937071
6 0 0 0 0.241063 10494 1 0.843369 0.0937072
7 0 0 0 0.23239 10485.1 1 0.843371 0.0937074
8 0 0 0 0.223845 10476.3 1 0.843374 0.0937077
9 0 0 0 0.21544 10467.7 1 0.843377 0.093708
10 0 0 0 0.207201 10459.3 1 0.843381 0.0937085
11 0 0 0 0.199145 10451 1 0.843385 0.093709
12 0 0 0 0.191294 10443 1 0.843389 0.0937095
13 0 0 0 0.18366 10435.1 1 0.843394 0.0937101
14 0 0 0 0.176259 10427.6 1 0.8434 0.0937107
15 0 0 0 0.169101 10420.2 1 0.843405 0.0937113
16 0 0 0 0.162196 10413.2 1 0.843411 0.093712
17 0 0 0 0.155549 10406.3 1 0.843416 0.0937127
18 0 0 0 0.149164 10399.8 1 0.843422 0.0937134
19 0 0 0 0.143044 10393.5 1 0.843428 0.0937141
20 0 0 0 0.137189 10387.5 1 0.843434 0.0937148
21 0 0 0 0.131596 10381.8 1 0.84344 0.0937155
22 0 0 0 0.126261 10376.3 1 0.843446 0.0937162
23 0 0 0 0.121181 10371.1 1 0.843452 0.0937169
24 0 0 0 0.116347 10366.2 1 0.843458 0.0937175
25 0 0 0 0.111753 10361.5 1 0.843464 0.0937182
26 0 0 0 0.10739 10357 1 0.84347 0.0937189
27 0 0 0 0.103249 10352.7 1 0.843476 0.0937196
28 0 0 0 0.0993202 10348.7 1 0.843481 0.0937202
29 0 0 0 0.0955931 10344.9 1 0.843487 0.0937208
30 0 0 0 0.0920573 10341.3 1 0.843492 0.0937215
31 0 0 0 0.0887022 10337.8 1 0.843498 0.0937221
32 0 0 0 0.0855168 10334.6 1 0.843503 0.0937227
33 0 0 0 0.0824905 10331.5 1 0.843508 0.0937232
34 0 0 0 0.0796126 10328.5 1 0.843513 0.0937238
35 0 0 0 0.0768727 10325.7 1 0.843518 0.0937244
36 0 0 0 0.0742606 10323 1 0.843523 0.0937249
37 0 0 0 0.0717663 10320.5 1 0.843527 0.0937254
38 0 0 0 0.0693803 10318 1 0.843532 0.093726
39 0 0 0 0.0670933 10315.7 1 0.843536 0.0937265
40 0 0 0 0.0648963 10313.4 1 0.843541 0.093727
41 0 0 0 0.0627809 10311.3 1 0.843545 0.0937274
42 0 0 0 0.0607388 10309.2 1 0.843549 0.0937279
43 0 0 0 0.0587622 10307.2 1 0.843553 0.0937284
44 0 0 0 0.0568438 10305.2 1 0.843557 0.0937288
45 0 0 0 0.0549763 10303.3 1 0.843561 0.0937292
46 0 0 0 0.0531531 10301.4 1 0.843565 0.0937297
47 0 0 0 0.0513676 10299.6 1 0.843568 0.0937301
48 0 0 0 0.0496137 10297.8 1 0.843572 0.0937305
49 0 0 0 0.0478856 10296 1 0.843575 0.0937309
50 0 0 0 0.0461776 10294.3 1 0.843579 0.0937313
51 0 0 0 0.0444844 10292.5 1 0.843582 0.0937317
52 0 0 0 0.0428007 10290.8 1 0.843585 0.093732
53 0 0 0 0.0411216 10289.1 1 0.843588 0.0937324
54 0 0 0 0.0394423 10287.4 1 0.843591 0.0937327
55 0 0 0 0.037758 10285.6 1 0.843594 0.093733
56 0 0 0 0.0360642 10283.9 1 0.843597 0.0937333
57 0 0 0 0.0343564 10282.2 1 0.843599 0.0937336
58 0 0 0 0.0326301 10280.4 1 0.843602 0.0937339
59 0 0 0 0.0308809 10278.6 1 0.843604 0.0937342
60 0 0 0 0.0291046 10276.8 1 0.843606 0.0937344
61 0 0 0 0.0272965 10274.9 1 0.843608 0.0937346
62 0 0 0 0.0254529 10273 1 0.843609 0.0937348
63 0 0 0 0.0235684 10271.1 1 0.84361 0.093735
64 0 0 0 0.0216408 10269.1 1 0.843611 0.0937351
65 0 0 0 0.0196638 10267.1 1 0.843612 0.0937351
66 0 0 0 0.0176337 10265 1 0.843613 0.0937352
67 0 0 0 0.0155528 10262.9 1 0.843613 0.0937352
68 0 0 0 0.0134009 10260.7 1 0.843612 0.0937351
69 0 0 0 0.0111953 10258.4 1 0.843611 0.093735
70 0 0 0 0.00895096 10256.1 1 0.84361 0.0937348
71 0 0 0 0.00663662 10253.8 1 0.843609 0.0937346
72 0 0 0 0.00425219 10251.3 1 0.843608 0.0937343
73 0 0 0 0.00183014 10248.8 1 0.843607 0.0937342
74 0 0 0 0 3765.49 0.367474 0.843613 0.093735
75 0 0 0 -0.000615242 -0.630436 0 0.843625 0.0937364
76 0 0 0 -0.000620087 -0.6354 0 0.843638 0.0937379
77 0 0 0 -0.000627124 -0.642611 0 0.843652 0.0937394
78 0 0 0 -0.000656764 -0.672983 0 0.843666 0.0937409
79 0 0 0 -0.00069634 -0.713537 0 0.84368 0.0937425
80 0 0 0 -0.000707687 -0.725163 0 0.843694 0.0937441
81 0 0 0 -0.00071132 -0.728886 0 0.843708 0.0937457
82 0 0 0 -0.000725554 -0.743472 0 0.843723 0.0937473
83 0 0 0 -0.000738238 -0.756469 0 0.843737 0.0937489
84 0 0 0 -0.000755619 -0.774279 0 0.843751 0.0937504
85 0 0 0 -0.000769951 -0.788965 0 0.843765 0.093752
86 0 0 0 -0.000784057 -0.803419 0 0.843779 0.0937536
87 0 0 0 -0.000799466 -0.819209 0 0.843793 0.0937551
88 0 0 0 -0.000812474 -0.832538 0 0.843807 0.0937567
89 0 0 0 -0.000826408 -0.846816 0 0.843821 0.0937582
90 0 0 0 -0.000839873 -0.860613 0 0.843835 0.0937597
91 0 0 0 -0.000852639 -0.873695 0 0.843848 0.0937612
92 0 0 0 -0.000865569 -0.886945 0 0.843861 0.0937627
93 0 0 0 -0.000878101 -0.899786 0 0.843875 0.0937641
94 0 0 0 -0.000890349 -0.912336 0 0.843888 0.0937656
95 0 0 0 -0.000902504 -0.924791 0 0.8439 0.093767
96 0 0 0 -0.000914352 -0.936932 0 0.843913 0.0937684
97 0 0 0 -0.00092586 -0.948724 0 0.843926 0.0937698
98 0 0 0 -0.000937077 -0.960219 0 0.843938 0.0937712
99 0 0 0 -0.000947879 -0.971287 0 0.84395 0.0937725
100 0 0 0 -0.000958339 -0.982005 0 0.843962 0.0937738
101 0 0 0 -0.000968527 -0.992444 0 0.843974 0.0937751
102 0 0 0 -0.000978435 -1.0026 0 0.843986 0.0937764
103 0 0 0 -0.000988157 -1.01256 0 0.843997 0.0937777
104 0 0 0 -0.000997663 -1.0223 0 0.844008 0.0937789
105 0 0 0 -0.00100698 -1.03184 0 0.844019 0.0937801
106 0 0 0 -0.00101606 -1.04115 0 0.84403 0.0937813
107 0 0 0 -0.00102493 -1.05024 0 0.844041 0.0937825
108 0 0 0 -0.00103355 -1.05908 0 0.844051 0.0937837
109 0 0 0 -0.00104195 -1.06768 0 0.844061 0.0937848
110 0 0 0 -0.0010501 -1.07604 0 0.844071 0.0937859
111 0 0 0 -0.00105803 -1.08415 0 0.844081 0.093787
112 0 0 0 -0.00106572 -1.09203 0 0.84409 0.093788
113 0 0 0 -0.00107317 -1.09968 0 0.8441 0.0937891
114 0 0 0 -0.0010804 -1.10708 0 0.844109 0.0937901
115 0 0 0 -0.00108739 -1.11425 0 0.844118 0.093791
116 0 0 0 -0.00109416 -1.12118 0 0.844126 0.093792
117 0 0 0 -0.00110068 -1.12786 0 0.844135 0.0937929
118 0 0 0 -0.00110699 -1.13432 0 0.844143 0.0937938
119 0 0 0 -0.00111306 -1.14055 0 0.844151 0.0937947
120 0 0 0 -0.00111891 -1.14654 0 0.844158 0.0937955
121 0 0 0 -0.00112453 -1.1523 0 0.844166 0.0937964
122 0 0 0 -0.00112994 -1.15785 0 0.844173 0.0937972
123 0 0 0 -0.00113513 -1.16317 0 0.84418 0.0937979
124 0 0 0 -0.00114011 -1.16827 0 0.844187 0.0937987
125 0 0 0 -0.00114487 -1.17315 0 0.844193 0.0937994
126 0 0 0 -0.00114943 -1.17781 0 0.844199 0.0938
127 0 0 0 -0.00115377 -1.18226 0 0.844205 0.0938007
128 0 0 0 -0.0011579 -1.1865 0 0.844211 0.0938013
129 0 0 0 -0.00116183 -1.19052 0 0.844216 0.0938019
130 0 0 0 -0.00116555 -1.19433 0 0.844221 0.0938025
131 0 0 0 -0.00116906 -1.19793 0 0.844226 0.093803
132 0 0 0 -0.00117236 -1.20132 0 0.844231 0.0938035
133 0 0 0 -0.00117546 -1.20449 0 0.844235 0.093804
134 0 0 0 -0.00117836 -1.20746 0 0.844239 0.0938044
135 0 0 0 -0.00118105 -1.21021 0 0.844243 0.0938048
136 0 0 0 -0.00118354 -1.21276 0 0.844246 0.0938052
137 0 0 0 -0.00118582 -1.21511 0 0.84425 0.0938056
138 0 0 0 -0.00118791 -1.21725 0 0.844253 0.0938059
139 0 0 0 -0.0011898 -1.21918 0 0.844255 0.0938062
140 0 0 0 -0.00119148 -1.22091 0 0.844258 0.0938065
141 0 0 0 -0.00119297 -1.22243 0 0.84426 0.0938067
142 0 0 0 -0.00119426 -1.22375 0 0.844262 0.0938069
143 0 0 0 -0.00119535 -1.22487 0 0.844263 0.0938071
144 0 0 0 -0.00119625 -1.22579 0 0.844265 0.0938072
145 0 0 0 -0.00119694 -1.2265 0 0.844266 0.0938073
146 0 0 0 -0.00119744 -1.22701 0 0.844267 0.0938074
147 0 0 0 -0.00119775 -1.22733 0 0.844267 0.0938075
148 0 0 0 -0.00119785 -1.22743 0 0.844267 0.0938075
149 0 0 0 -0.00119785 -1.22743 0 0.844267 0.0938075
0 1 0 0 0.292139 10546.3 1 0.843371 0.0937079
1 1 -8.58068e-08 7.16182e-06 0.285004 10539 1 0.843371 0.0937078
2 1 -3.42507e-06 1.00446e-05 0.277023 10530.8 1 0.843369 0.0937064
3 1 -9.82689e-06 1.16043e-05 0.267675 10521.2 1 0.843368 0.0937044
4 1 -1.81567e-05 1.25439e-05 0.25869 10512 1 0.843368 0.0937019
5 1 -2.77854e-05 1.31101e-05 0.249825 10502.9 1 0.843368 0.0936992
6 1 -3.82547e-05 1.33813e-05 0.241063 10494 1 0.843369 0.0936964
7 1 -4.91979e-05 1.34142e-05 0.23239 10485.1 1 0.843371 0.0936935
8 1 -6.03235e-05 1.32606e-05 0.223845 10476.3 1 0.843374 0.0936907
9 1 -7.14049e-05 1.29642e-05 0.21544 10467.7 1 0.843377 0.093688
10 1 -8.22675e-05 1.256e-05 0.207201 10459.3 1 0.843381 0.0936853
11 1 -9.27784e-05 1.20758e-05 0.199145 10451 1 0.843385 0.0936829
12 1 -0.000102838 1.15339e-05 0.191294 10443 1 0.843389 0.0936806
13 1 -0.000112372 1.09522e-05 0.18366 10435.1 1 0.843394 0.0936785
14 1 -0.000121331 1.03453e-05 0.176259 10427.6 1 0.8434 0.0936766
15 1 -0.00012968 9.72521e-06 0.169101 10420.2 1 0.843405 0.0936749
16 1 -0.0001374 9.10139e-06 0.162196 10413.2 1 0.843411 0.0936734
17 1 -0.000144482 8.48159e-06 0.155549 10406.3 1 0.843416 0.0936721
18 1 -0.000150929 7.87198e-06 0.149164 10399.8 1 0.843422 0.0936709
19 1 -0.000156748 7.27744e-06 0.143044 10393.5 1 0.843428 0.09367
20 1 -0.000161955 6.70172e-06 0.137189 10387.5 1 0.843434 0.0936692
21 1 -0.000166568 6.14766e-06 0.131596 10381.8 1 0.84344 0.0936686
22 1 -0.000170611 5.61728e-06 0.126261 10376.3 1 0.843446 0.0936682
23 1 -0.000174108 5.11192e-06 0.121181 10371.1 1 0.843452 0.0936679
24 1 -0.000177087 4.63236e-06 0.116347 10366.2 1 0.843458 0.0936678
25 1 -0.000179574 4.17885e-06 0.111753 10361.5 1 0.843464 0.0936677
26 1 -0.000181597 3.75125e-06 0.10739 10357 1 0.84347 0.0936679
27 1 -0.000183185 3.34907e-06 0.103249 10352.7 1 0.843476 0.0936681
28 1 -0.000184365 2.97153e-06 0.0993202 10348.7 1 0.843481 0.0936684
29 1 -0.000185164 2.61759e-06 0.0955931 10344.9 1 0.843487 0.0936688
30 1 -0.000185606 2.28605e-06 0.0920574 10341.3 1 0.843492 0.0936693
31 1 -0.000185715 1.97555e-06 0.0887022 10337.8 1 0.843498 0.0936699
32 1 -0.000185513 1.68459e-06 0.0855168 10334.6 1 0.843503 0.0936705
33 1 -0.000185021 1.41162e-06 0.0824905 10331.5 1 0.843508 0.0936712
34 1 -0.000184258 1.155e-06 0.0796126 10328.5 1 0.843513 0.093672
35 1 -0.000183241 9.13076e-07 0.0768727 10325.7 1 0.843518 0.0936729
36 1 -0.000181983 6.84159e-07 0.0742606 10323 1 0.843523 0.0936738
37 1 -0.000180498 4.66564e-07 0.0717663 10320.5 1 0.843527 0.0936747
38 1 -0.000178797 2.58614e-07 0.0693803 10318 1 0.843532 0.0936757
39 1 -0.000176889 5.86538e-08 0.0670933 10315.7 1 0.843536 0.0936767
40 1 -0.00017478 -1.3494e-07 0.0648963 10313.4 1 0.843541 0.0936778
41 1 -0.000172475 -3.23756e-07 0.0627809 10311.3 1 0.843545 0.0936789
42 1 -0.000169978 -5.09334e-07 0.0607388 10309.2 1 0.843549 0.0936801
43 1 -0.00016729 -6.93167e-07 0.0587623 10307.2 1 0.843553 0.0936813
44 1 -0.000164411 -8.76689e-07 0.0568438 10305.2 1 0.843557 0.0936826
45 1 -0.000161338 -1.06127e-06 0.0549763 10303.3 1 0.843561 0.0936839
46 1 -0.000158067 -1.24822e-06 0.0531531 10301.4 1 0.843565 0.0936852
47 1 -0.000154594 -1.43877e-06 0.0513676 10299.6 1 0.843568 0.0936866
48 1 -0.000150911 -1.63405e-06 0.0496137 10297.8 1 0.843572 0.0936881
49 1 -0.000147012 -1.8351e-06 0.0478856 10296 1 0.843575 0.0936896
50 1 -0.000142886 -2.04284e-06 0.0461776 10294.3 1 0.843579 0.0936911
51 1 -0.000138523 -2.25807e-06 0.0444844 10292.5 1 0.843582 0.0936927
52 1 -0.000133913 -2.48138e-06 0.0428007 10290.8 1 0.843585 0.0936944
53 1 -0.000129045 -2.71318e-06 0.0411216 10289.1 1 0.843588 0.0936961
54 1 -0.000123907 -2.95362e-06 0.0394423 10287.4 1 0.843591 0.0936979
55 1 -0.000118487 -3.20249e-06 0.0377581 10285.6 1 0.843594 0.0936997
56 1 -0.000112774 -3.45918e-06 0.0360642 10283.9 1 0.843597 0.0937016
57 1 -0.00010676 -3.72252e-06 0.0343564 10282.2 1 0.843599 0.0937036
58 1 -0.000100437 -3.99062e-06 0.0326301 10280.4 1 0.843602 0.0937057
59 1 -9.38023e-05 -4.26067e-06 0.030881 10278.6 1 0.843604 0.0937078
60 1 -8.68557e-05 -4.52864e-06 0.0291046 10276.8 1 0.843606 0.09371
61 1 -7.96053e-05 -4.7889e-06 0.0272965 10274.9 1 0.843608 0.0937122
62 1 -7.20681e-05 -5.03369e-06 0.0254529 10273 1 0.843609 0.0937145
63 1 -6.42733e-05 -5.25248e-06 0.0235684 10271.1 1 0.84361 0.0937169
64 1 -5.62671e-05 -5.43101e-06 0.0216408 10269.1 1 0.843611 0.0937192
65 1 -4.81183e-05 -5.5502e-06 0.0196638 10267.1 1 0.843612 0.0937216
66 1 -3.99256e-05 -5.5844e-06 0.0176337 10265 1 0.843612 0.093724
67 1 -3.18281e-05 -5.49906e-06 0.0155529 10262.9 1 0.843612 0.0937262
68 1 -2.40186e-05 -5.24765e-06 0.0134009 10260.7 1 0.843612 0.0937283
69 1 -1.67632e-05 -4.7641e-06 0.0111953 10258.4 1 0.843611 0.0937303
70 1 -1.04232e-05 -3.96957e-06 0.00895097 10256.1 1 0.84361 0.0937319
71 1 -5.46773e-06 -2.77377e-06 0.00663662 10253.8 1 0.843609 0.093733
72 1 -2.38336e-06 -1.29143e-06 0.00425219 10251.3 1 0.843608 0.0937337
73 1 -1.35487e-06 1.13846e-07 0.00183014 10248.8 1 0.843607 0.0937338
74 1 0 0 0 3765.5 0.367475 0.843613 0.093735
75 1 0 0 -0.000615243 -0.630436 0 0.843625 0.0937364
76 1 0 0 -0.000620087 -0.6354 0 0.843638 0.0937379
77 1 0 0 -0.000627125 -0.642611 0 0.843652 0.0937394
78 1 0 0 -0.000656764 -0.672983 0 0.843666 0.0937409
79 1 0 0 -0.000696341 -0.713537 0 0.84368 0.0937425
80 1 0 0 -0.000707687 -0.725164 0 0.843694 0.0937441
81 1 0 0 -0.000711321 -0.728887 0 0.843708 0.0937457
82 1 0 0 -0.000725555 -0.743473 0 0.843723 0.0937473
83 1 0 0 -0.000738239 -0.75647 0 0.843737 0.0937489
84 1 0 0 -0.00075562 -0.77428 0 0.843751 0.0937504
85 1 0 0 -0.000769951 -0.788965 0 0.843765 0.093752
86 1 0 0 -0.000784058 -0.80342 0 0.843779 0.0937536
87 1 0 0 -0.000799467 -0.81921 0 0.843793 0.0937551
88 1 0 0 -0.000812475 -0.832539 0 0.843807 0.0937567
89 1 0 0 -0.000826409 -0.846817 0 0.843821 0.0937582
90 1 0 0 -0.000839874 -0.860615 0 0.843835 0.0937597
91 1 0 0 -0.00085264 -0.873696 0 0.843848 0.0937612
92 1 0 0 -0.00086557 -0.886946 0 0.843861 0.0937627
93 1 0 0 -0.000878102 -0.899787 0 0.843875 0.0937641
94 1 0 0 -0.00089035 -0.912337 0 0.843888 0.0937656
95 1 0 0 -0.000902505 -0.924792 0 0.8439 0.093767
96 1 0 0 -0.000914353 -0.936933 0 0.843913 0.0937684
97 1 0 0 -0.000925861 -0.948725 0 0.843926 0.0937698
98 1 0 0 -0.000937078 -0.96022 0 0.843938 0.0937712
99 1 0 0 -0.00094788 -0.971288 0 0.84395 0.0937725
100 1 0 0 -0.00095834 -0.982006 0 0.843962 0.0937738
101 1 0 0 -0.000968528 -0.992445 0 0.843974 0.0937751
102 1 0 0 -0.000978436 -1.0026 0 0.843986 0.0937764
103 1 0 0 -0.000988158 -1.01256 0 0.843997 0.0937777
104 1 0 0 -0.000997664 -1.0223 0 0.844008 0.0937789
105 1 0 0 -0.00100698 -1.03184 0 0.844019 0.0937801
106 1 0 0 -0.00101606 -1.04116 0 0.84403 0.0937813
107 1 0 0 -0.00102493 -1.05024 0 0.844041 0.0937825
108 1 0 0 -0.00103356 -1.05908 0 0.844051 0.0937837
109 1 0 0 -0.00104195 -1.06768 0 0.844061 0.0937848
110 1 0 0 -0.0010501 -1.07604 0 0.844071 0.0937859
111 1 0 0 -0.00105803 -1.08416 0 0.844081 0.093787
112 1 0 0 -0.00106572 -1.09204 0 0.84409 0.093788
113 1 0 0 -0.00107317 -1.09968 0 0.8441 0.0937891
114 1 0 0 -0.0010804 -1.10708 0 0.844109 0.0937901
115 1 0 0 -0.00108739 -1.11425 0 0.844118 0.093791
116 1 0 0 -0.00109416 -1.12118 0 0.844126 0.093792
117 1 0 0 -0.00110068 -1.12787 0 0.844135 0.0937929
118 1 0 0 -0.00110699 -1.13432 0 0.844143 0.0937938
119 1 0 0 -0.00111306 -1.14055 0 0.844151 0.0937947
120 1 0 0 -0.00111891 -1.14654 0 0.844158 0.0937955
121 1 0 0 -0.00112453 -1.15231 0 0.844166 0.0937964
122 1 0 0 -0.00112994 -1.15785 0 0.844173 0.0937972
123 1 0 0 -0.00113513 -1.16317 0 0.84418 0.0937979
124 1 0 0 -0.00114011 -1.16827 0 0.844187 0.0937987
125 1 0 0 -0.00114488 -1.17315 0 0.844193 0.0937994
126 1 0 0 -0.00114943 -1.17781 0 0.844199 0.0938
127 1 0 0 -0.00115377 -1.18226 0 0.844205 0.0938007
128 1 0 0 -0.00115791 -1.1865 0 0.844211 0.0938013
129 1 0 0 -0.00116183 -1.19052 0 0.844216 0.0938019
130 1 0 0 -0.00116555 -1.19433 0 0.844221 0.0938025
131 1 0 0 -0.00116906 -1.19793 0 0.844226 0.093803
132 1 0 0 -0.00117236 -1.20132 0 0.844231 0.0938035
133 1 0 0 -0.00117546 -1.20449 0 0.844235 0.093804
134 1 0 0 -0.00117836 -1.20746 0 0.844239 0.0938044
135 1 0 0 -0.00118105 -1.21022 0 0.844243 0.0938048
136 1 0 0 -0.00118354 -1.21277 0 0.844246 0.0938052
137 1 0 0 -0.00118582 -1.21511 0 0.84425 0.0938056
138 1 0 0 -0.00118791 -1.21725 0 0.844253 0.0938059
139 1 0 0 -0.0011898 -1.21918 0 0.844255 0.0938062
140 1 0 0 -0.00119148 -1.22091 0 0.844258 0.0938065
141 1 0 0 -0.00119297 -1.22243 0 0.84426 0.0938067
142 1 0 0 -0.00119426 -1.22375 0 0.844262 0.0938069
143 1 0 0 -0.00119535 -1.22487 0 0.844263 0.0938071
144 1 0 0 -0.00119625 -1.22579 0 0.844265 0.0938072
145 1 0 0 -0.00119694 -1.2265 0 0.844266 0.0938073
146 1 0 0 -0.00119744 -1.22702 0 0.844267 0.0938074
147 1 0 0 -0.00119775 -1.22733 0 0.844267 0.0938075
148 1 0 0 -0.00119785 -1.22744 0 0.844267 0.0938075
149 1 0 0 -0.00119785 -1.22743 0 0.844267 0.0938075
0 2 0 0 0.292538 10546.7 1 0.843386 0.0937094
1 2 -2.82536e-06 9.5845e-06 0.284987 10539 1 0.843386 0.0937086
2 2 -9.17055e-06 1.70947e-05 0.276492 10530.3 1 0.843385 0.0937065
3 2 -2.0201e-05 2.2046e-05 0.267272 10520.8 1 0.843384 0.093703
4 2 -3.4931e-05 2.53767e-05 0.258572 10511.9 1 0.843384 0.0936987
5 2 -5.22595e-05 2.75355e-05 0.249726 10502.8 1 0.843384 0.0936937
6 2 -7.12914e-05 2.87958e-05 0.240999 10493.9 1 0.843385 0.0936884
7 2 -9.13435e-05 2.9346e-05 0.232326 10485 1 0.843387 0.0936829
8 2 -0.000111879 2.93386e-05 0.223784 10476.3 1 0.843389 0.0936774
9 2 -0.00013247 2.88973e-05 0.215373 10467.6 1 0.843392 0.0936719
10 2 -0.000152781 2.81221e-05 0.207131 10459.2 1 0.843395 0.0936666
11 2 -0.000172548 2.70937e-05 0.199071 10450.9 1 0.843399 0.0936615
12 2 -0.000191571 2.58775e-05 0.191215 10442.9 1 0.843403 0.0936566
13 2 -0.000209698 2.45264e-05 0.183577 10435.1 1 0.843407 0.0936521
14 2 -0.000226818 2.30837e-05 0.176173 10427.5 1 0.843412 0.0936478
15 2 -0.000242856 2.15846e-05 0.169012 10420.1 1 0.843416 0.0936439
16 2 -0.000257762 2.00576e-05 0.162105 10413.1 1 0.843422 0.0936404
17 2 -0.000271511 1.85259e-05 0.155456 10406.2 1 0.843427 0.0936372
18 2 -0.000284095 1.70082e-05 0.149071 10399.7 1 0.843432 0.0936343
19 2 -0.000295521 1.55194e-05 0.142951 10393.4 1 0.843438 0.0936317
20 2 -0.000305808 1.40712e-05 0.137096 10387.4 1 0.843443 0.0936295
21 2 -0.000314986 1.26725e-05 0.131504 10381.7 1 0.843449 0.0936276
22 2 -0.000323091 1.13298e-05 0.126172 10376.2 1 0.843454 0.093626
23 2 -0.000330164 1.00478e-05 0.121093 10371 1 0.84346 0.0936247
24 2 -0.000336251 8.82942e-06 0.116262 10366.1 1 0.843466 0.0936237
25 2 -0.0003414 7.67605e-06 0.111671 10361.4 1 0.843471 0.0936229
26 2 -0.000345659 6.58795e-06 0.107312 10356.9 1 0.843476 0.0936224
27 2 -0.000349078 5.56431e-06 0.103174 10352.7 1 0.843482 0.093622
28 2 -0.000351707 4.60348e-06 0.0992492 10348.7 1 0.843487 0.0936219
29 2 -0.000353592 3.70306e-06 0.0955261 10344.8 1 0.843492 0.093622
30 2 -0.000354779 2.86012e-06 0.0919944 10341.2 1 0.843498 0.0936223
31 2 -0.000355313 2.07124e-06 0.0886434 10337.8 1 0.843503 0.0936227
32 2 -0.000355233 1.33264e-06 0.0854622 10334.5 1 0.843508 0.0936233
33 2 -0.000354578 6.4025e-07 0.08244 10331.4 1 0.843513 0.0936241
34 2 -0.000353383 -1.01695e-08 0.0795663 10328.5 1 0.843517 0.093625
35 2 -0.000351679 -6.23015e-07 0.0768305 10325.7 1 0.843522 0.093626
36 2 -0.000349494 -1.20276e-06 0.0742224 10323 1 0.843527 0.0936272
37 2 -0.000346852 -1.7539e-06 0.0717321 10320.5 1 0.843531 0.0936284
38 2 -0.000343773 -2.28094e-06 0.0693499 10318 1 0.843535 0.0936298
39 2 -0.000340275 -2.78834e-06 0.0670666 10315.7 1 0.84354 0.0936313
40 2 -0.000336372 -3.2805e-06 0.0648732 10313.4 1 0.843544 0.0936329
41 2 -0.000332074 -3.7617e-06 0.0627612 10311.3 1 0.843548 0.0936345
42 2 -0.000327386 -4.23613e-06 0.0607224 10309.2 1 0.843552 0.0936363
43 2 -0.000322313 -4.70785e-06 0.0587491 10307.2 1 0.843556 0.0936382
44 2 -0.000316855 -5.18077e-06 0.0568337 10305.2 1 0.84356 0.0936402
45 2 -0.000311008 -5.6586e-06 0.0549692 10303.3 1 0.843563 0.0936422
46 2 -0.000304766 -6.14489e-06 0.0531487 10301.4 1 0.843567 0.0936444
47 2 -0.000298122 -6.64295e-06 0.0513659 10299.6 1 0.84357 0.0936467
48 2 -0.000291063 -7.15583e-06 0.0496147 10297.8 1 0.843574 0.0936491
49 2 -0.000283576 -7.68631e-06 0.047889 10296 1 0.843577 0.0936516
50 2 -0.000275645 -8.23679e-06 0.0461835 10294.3 1 0.84358 0.0936542
51 2 -0.000267254 -8.80925e-06 0.0444925 10292.5 1 0.843583 0.0936569
52 2 -0.000258384 -9.40518e-06 0.0428111 10290.8 1 0.843587 0.0936598
53 2 -0.000249015 -1.00254e-05 0.0411341 10289.1 1 0.843589 0.0936627
54 2 -0.000239129 -1.06699e-05 0.0394569 10287.4 1 0.843592 0.0936658
55 2 -0.000228707 -1.13378e-05 0.0377746 10285.7 1 0.843595 0.0936691
56 2 -0.000217732 -1.20268e-05 0.0360828 10283.9 1 0.843597 0.0936725
57 2 -0.00020619 -1.27329e-05 0.0343769 10282.2 1 0.8436 0.093676
58 2 -0.000194072 -1.34501e-05 0.0326526 10280.4 1 0.843602 0.0936797
59 2 -0.000181376 -1.41695e-05 0.0309053 10278.6 1 0.843604 0.0936835
60 2 -0.00016811 -1.48787e-05 0.0291308 10276.8 1 0.843606 0.0936875
61 2 -0.000154293 -1.55604e-05 0.0273247 10275 1 0.843607 0.0936916
62 2 -0.000139964 -1.61914e-05 0.0254831 10273.1 1 0.843609 0.0936958
63 2 -0.000125182 -1.67401e-05 0.0236004 10271.1 1 0.84361 0.0937001
64 2 -0.000110041 -1.71647e-05 0.0216752 10269.2 1 0.843611 0.0937045
65 2 -9.46724e-05 -1.74095e-05 0.0196986 10267.1 1 0.843611 0.0937088
66 2 -7.92598e-05 -1.74008e-05 0.0176721 10265.1 1 0.843612 0.0937132
67 2 -6.40541e-05 -1.70413e-05 0.01559 10262.9 1 0.843612 0.0937174
68 2 -4.939e-05 -1.62037e-05 0.0134377 10260.7 1 0.843611 0.0937215
69 2 -3.57028e-05 -1.4721e-05 0.0112404 10258.5 1 0.843611 0.0937252
70 2 -2.35359e-05 -1.2403e-05 0.00898697 10256.2 1 0.84361 0.0937284
71 2 -1.35284e-05 -9.06663e-06 0.00665036 10253.8 1 0.843608 0.093731
72 2 -6.34138e-06 -4.97638e-06 0.00425749 10251.3 1 0.843607 0.0937327
73 2 -2.44137e-06 -9.85234e-07 0.00183839 10248.8 1 0.843606 0.0937335
74 2 0 0 0 3702.21 0.361299 0.843612 0.0937349
75 2 0 0 -0.000618947 -0.634232 0 0.843624 0.0937363
76 2 0 0 -0.000636534 -0.652254 0 0.843638 0.0937378
77 2 0 0 -0.000638927 -0.654706 0 0.843651 0.0937393
78 2 0 0 -0.000647855 -0.663854 0 0.843665 0.0937409
79 2 0 0 -0.000681735 -0.698571 0 0.843679 0.0937425
80 2 0 0 -0.00070457 -0.721969 0 0.843694 0.0937441
81 2 0 0 -0.000711671 -0.729245 0 0.843708 0.0937457
82 2 0 0 -0.000726428 -0.744367 0 0.843722 0.0937472
83 2 0 0 -0.000738934 -0.757182 0 0.843737 0.0937488
84 2 0 0 -0.000754918 -0.773561 0 0.843751 0.0937504
85 2 0 0 -0.000770761 -0.789795 0 0.843765 0.093752
86 2 0 0 -0.000783636 -0.802988 0 0.843779 0.0937536
87 2 0 0 -0.000799531 -0.819275 0 0.843793 0.0937551
88 2 0 0 -0.000812796 -0.832868 0 0.843807 0.0937566
89 2 0 0 -0.000826368 -0.846775 0 0.843821 0.0937582
90 2 0 0 -0.000840111 -0.860857 0 0.843834 0.0937597
91 2 0 0 -0.000852902 -0.873965 0 0.843848 0.0937612
92 2 0 0 -0.000865726 -0.887105 0 0.843861 0.0937626
93 2 0 0 -0.000878355 -0.900046 0 0.843874 0.0937641
94 2 0 0 -0.000890518 -0.912509 0 0.843887 0.0937655
95 2 0 0 -0.000902565 -0.924854 0 0.8439 0.093767
96 2 0 0 -0.000914363 -0.936943 0 0.843913 0.0937684
97 2 0 0 -0.000925802 -0.948664 0 0.843925 0.0937698
98 2 0 0 -0.000937006 -0.960146 0 0.843938 0.0937711
99 2 0 0 -0.000947874 -0.971282 0 0.84395 0.0937725
100 2 0 0 -0.000958392 -0.98206 0 0.843962 0.0937738
101 2 0 0 -0.000968663 -0.992584 0 0.843974 0.0937751
102 2 0 0 -0.000978627 -1.00279 0 0.843985 0.0937764
103 2 0 0 -0.000988377 -1.01279 0 0.843997 0.0937777
104 2 0 0 -0.00099789 -1.02253 0 0.844008 0.0937789
105 2 0 0 -0.00100719 -1.03207 0 0.844019 0.0937801
106 2 0 0 -0.00101627 -1.04137 0 0.84403 0.0937813
107 2 0 0 -0.00102512 -1.05044 0 0.844041 0.0937825
108 2 0 0 -0.00103374 -1.05927 0 0.844051 0.0937837
109 2 0 0 -0.00104213 -1.06786 0 0.844061 0.0937848
110 2 0 0 -0.00105027 -1.07621 0 0.844071 0.0937859
111 2 0 0 -0.00105819 -1.08432 0 0.844081 0.093787
112 2 0 0 -0.00106587 -1.0922 0 0.84409 0.093788
113 2 0 0 -0.00107332 -1.09983 0 0.8441 0.0937891
114 2 0 0 -0.00108054 -1.10723 0 0.844109 0.0937901
115 2 0 0 -0.00108753 -1.11439 0 0.844118 0.093791
116 2 0 0 -0.00109429 -1.12131 0 0.844126 0.093792
117 2 0 0 -0.00110082 -1.128 0 0.844135 0.0937929
118 2 0 0 -0.00110712 -1.13446 0 0.844143 0.0937938
119 2 0 0 -0.00111319 -1.14068 0 0.844151 0.0937947
120 2 0 0 -0.00111905 -1.14668 0 0.844158 0.0937955
121 2 0 0 -0.00112467 -1.15245 0 0.844166 0.0937964
122 2 0 0 -0.00113008 -1.15799 0 0.844173 0.0937972
123 2 0 0 -0.00113528 -1.16331 0 0.84418 0.0937979
124 2 0 0 -0.00114025 -1.16841 0 0.844187 0.0937987
125 2 0 0 -0.00114502 -1.1733 0 0.844193 0.0937994
126 2 0 0 -0.00114957 -1.17796 0 0.844199 0.0938
127 2 0 0 -0.00115391 -1.18241 0 0.844205 0.0938007
128 2 0 0 -0.00115805 -1.18664 0 0.844211 0.0938013
129 2 0 0 -0.00116197 -1.19066 0 0.844216 0.0938019
130 2 0 0 -0.00116569 -1.19447 0 0.844221 0.0938025
131 2 0 0 -0.00116919 -1.19807 0 0.844226 0.093803
132 2 0 0 -0.0011725 -1.20145 0 0.844231 0.0938035
133 2 0 0 -0.0011756 -1.20463 0 0.844235 0.093804
134 2 0 0 -0.00117849 -1.20759 0 0.844239 0.0938044
135 2 0 0 -0.00118118 -1.21035 0 0.844243 0.0938048
136 2 0 0 -0.00118367 -1.2129 0 0.844246 0.0938052
137 2 0 0 -0.00118596 -1.21524 0 0.84425 0.0938056
138 2 0 0 -0.00118804 -1.21738 0 0.844253 0.0938059
139 2 0 0 -0.00118993 -1.21931 0 0.844255 0.0938062
140 2 0 0 -0.00119161 -1.22104 0 0.844258 0.0938065
141 2 0 0 -0.0011931 -1.22256 0 0.84426 0.0938067
142 2 0 0 -0.00119439 -1.22389 0 0.844262 0.0938069
143 2 0 0 -0.00119548 -1.225 0 0.844263 0.0938071
144 2 0 0 -0.00119638 -1.22592 0 0.844265 0.0938072
145 2 0 0 -0.00119707 -1.22663 0 0.844266 0.0938073
146 2 0 0 -0.00119757 -1.22715 0 0.844267 0.0938074
147 2 0 0 -0.00119788 -1.22746 0 0.844267 0.0938075
148 2 0 0 -0.00119798 -1.22757 0 0.844267 0.0938075
149 2 0 0 -0.00119798 -1.22757 0 0.844267 0.0938075
0 3 0 0 0.292389 10546.6 1 0.843402 0.0937111
1 3 -4.71162e-06 1.48383e-05 0.284434 10538.4 1 0.843402 0.0937098
2 3 -1.42411e-05 2.78715e-05 0.27582 10529.6 1 0.843401 0.0937066
3 3 -2.94533e-05 3.75474e-05 0.267101 10520.6 1 0.8434 0.0937019
4 3 -4.92891e-05 4.44996e-05 0.258578 10511.9 1 0.8434 0.0936961
5 3 -7.26037e-05 4.92028e-05 0.249642 10502.8 1 0.8434 0.0936894
6 3 -9.83633e-05 5.21292e-05 0.240925 10493.8 1 0.8434 0.0936821
7 3 -0.000125691 5.3636e-05 0.232214 10484.9 1 0.843402 0.0936745
8 3 -0.000153862 5.40163e-05 0.223658 10476.1 1 0.843403 0.0936667
9 3 -0.000182291 5.35067e-05 0.215224 10467.5 1 0.843406 0.093659
10 3 -0.000210504 5.23019e-05 0.206967 10459 1 0.843409 0.0936514
11 3 -0.000238125 5.05608e-05 0.19889 10450.8 1 0.843412 0.0936441
12 3 -0.000264859 4.84139e-05 0.191021 10442.7 1 0.843415 0.093637
13 3 -0.000290476 4.5968e-05 0.183371 10434.8 1 0.843419 0.0936303
14 3 -0.000314806 4.33111e-05 0.175957 10427.3 1 0.843423 0.093624
15 3 -0.000337723 4.05153e-05 0.168788 10419.9 1 0.843428 0.0936181
16 3 -0.000359142 3.76398e-05 0.161875 10412.8 1 0.843432 0.0936127
17 3 -0.000379011 3.47329e-05 0.155223 10406 1 0.843437 0.0936078
18 3 -0.000397303 3.1834e-05 0.148836 10399.5 1 0.843442 0.0936033
19 3 -0.000414016 2.89747e-05 0.142715 10393.2 1 0.843447 0.0935992
20 3 -0.000429163 2.61801e-05 0.136862 10387.2 1 0.843452 0.0935956
21 3 -0.000442774 2.34697e-05 0.131273 10381.5 1 0.843457 0.0935924
22 3 -0.000454889 2.08582e-05 0.125944 10376 1 0.843462 0.0935897
23 3 -0.000465558 1.83562e-05 0.120871 10370.8 1 0.843468 0.0935873
24 3 -0.000474835 1.59709e-05 0.116047 10365.9 1 0.843473 0.0935854
25 3 -0.000482781 1.37064e-05 0.111464 10361.2 1 0.843478 0.0935838
26 3 -0.000489459 1.15642e-05 0.107113 10356.7 1 0.843483 0.0935826
27 3 -0.000494933 9.54382e-06 0.102985 10352.5 1 0.843488 0.0935817
28 3 -0.000499267 7.64278e-06 0.0990696 10348.5 1 0.843493 0.0935811
29 3 -0.000502524 5.85717e-06 0.0953569 10344.7 1 0.843498 0.0935807
30 3 -0.000504765 4.18185e-06 0.0918358 10341.1 1 0.843503 0.0935807
31 3 -0.00050605 2.61065e-06 0.0884956 10337.6 1 0.843508 0.0935809
32 3 -0.000506433 1.1366e-06 0.0853254 10334.4 1 0.843513 0.0935814
33 3 -0.000505966 -2.47876e-07 0.0823142 10331.3 1 0.843517 0.0935821
34 3 -0.000504698 -1.55083e-06 0.0794514 10328.4 1 0.843522 0.093583
35 3 -0.000502671 -2.78064e-06 0.0767264 10325.6 1 0.843526 0.0935841
36 3 -0.000499925 -3.94588e-06 0.074129 10322.9 1 0.843531 0.0935854
37 3 -0.000496493 -5.05525e-06 0.071649 10320.4 1 0.843535 0.0935868
38 3 -0.000492405 -6.11748e-06 0.069277 10317.9 1 0.843539 0.0935885
39 3 -0.000487685 -7.14125e-06 0.0670035 10315.6 1 0.843543 0.0935903
40 3 -0.000482354 -8.13513e-06 0.0648197 10313.4 1 0.843547 0.0935923
41 3 -0.000476427 -9.10753e-06 0.062717 10311.2 1 0.843551 0.0935944
42 3 -0.000469914 -1.00666e-05 0.0606871 10309.1 1 0.843555 0.0935967
43 3 -0.00046282 -1.10204e-05 0.0587223 10307.1 1 0.843559 0.0935991
44 3 -0.000455148 -1.19765e-05 0.0568152 10305.2 1 0.843562 0.0936017
45 3 -0.000446894 -1.29421e-05 0.0549586 10303.3 1 0.843566 0.0936045
46 3 -0.000438054 -1.39243e-05 0.0531457 10301.4 1 0.843569 0.0936074
47 3 -0.000428615 -1.49293e-05 0.0513703 10299.6 1 0.843573 0.0936104
48 3 -0.000418564 -1.59632e-05 0.049626 10297.8 1 0.843576 0.0936136
49 3 -0.000407886 -1.70311e-05 0.0479071 10296 1 0.843579 0.093617
50 3 -0.000396561 -1.81376e-05 0.046208 10294.3 1 0.843582 0.0936206
51 3 -0.000384567 -1.92863e-05 0.0445233 10292.6 1 0.843585 0.0936243
52 3 -0.000371883 -2.04796e-05 0.0428479 10290.9 1 0.843588 0.0936282
53 3 -0.000358484 -2.17189e-05 0.0411768 10289.1 1 0.843591 0.0936323
54 3 -0.000344349 -2.30035e-05 0.0395051 10287.4 1 0.843593 0.0936366
55 3 -0.000329455 -2.43307e-05 0.0378284 10285.7 1 0.843596 0.0936411
56 3 -0.000313785 -2.56953e-05 0.0361419 10284 1 0.843598 0.0936458
57 3 -0.000297324 -2.70884e-05 0.0344412 10282.2 1 0.8436 0.0936508
58 3 -0.000280067 -2.8497e-05 0.0327219 10280.5 1 0.843602 0.0936559
59 3 -0.000262016 -2.99024e-05 0.0309797 10278.7 1 0.843604 0.0936612
60 3 -0.000243188 -3.12785e-05 0.0292102 10276.9 1 0.843606 0.0936667
61 3 -0.000223619 -3.25902e-05 0.027409 10275 1 0.843607 0.0936724
62 3 -0.000203367 -3.37901e-05 0.025572 10273.2 1 0.843609 0.0936783
63 3 -0.000182522 -3.48156e-05 0.0236943 10271.2 1 0.84361 0.0936843
64 3 -0.000161213 -3.55844e-05 0.0217728 10269.3 1 0.843611 0.0936904
65 3 -0.000139621 -3.5989e-05 0.0198004 10267.2 1 0.843611 0.0936965