Title="LBM for phase change with fin"
dt=1 dx=1
VARIABLES="X","Y","U","V","T","H","fl","pa","Test"
ZONE T="BOX",I=150,J=150,F=POINT
0 0 0 0 0.272894 10526.6 1 0.965384 0.107265
1 0 0 0 0.272894 10526.6 1 0.965384 0.107265
2 0 0 0 0.264907 10518.4 1 0.965382 0.107264
3 0 0 0 0.255547 10508.8 1 0.965381 0.107264
4 0 0 0 0.246541 10499.6 1 0.965381 0.107264
5 0 0 0 0.237647 10490.5 1 0.965382 0.107264
6 0 0 0 0.228848 10481.5 1 0.965383 0.107264
7 0 0 0 0.22013 10472.5 1 0.965385 0.107264
8 0 0 0 0.211533 10463.7 1 0.965389 0.107265
9 0 0 0 0.203066 10455 1 0.965393 0.107265
10 0 0 0 0.194758 10446.5 1 0.965397 0.107266
11 0 0 0 0.186623 10438.2 1 0.965402 0.107266
12 0 0 0 0.178683 10430 1 0.965408 0.107267
13 0 0 0 0.170951 10422.1 1 0.965414 0.107268
14 0 0 0 0.163441 10414.4 1 0.96542 0.107268
15 0 0 0 0.156162 10407 1 0.965427 0.107269
16 0 0 0 0.149124 10399.8 1 0.965434 0.10727
17 0 0 0 0.142331 10392.8 1 0.965441 0.107271
18 0 0 0 0.135787 10386.1 1 0.965448 0.107272
19 0 0 0 0.129493 10379.6 1 0.965455 0.107273
20 0 0 0 0.123449 10373.4 1 0.965463 0.107274
21 0 0 0 0.117652 10367.5 1 0.96547 0.107274
22 0 0 0 0.112098 10361.8 1 0.965478 0.107275
23 0 0 0 0.106782 10356.4 1 0.965485 0.107276
24 0 0 0 0.101696 10351.2 1 0.965492 0.107277
25 0 0 0 0.0968324 10346.2 1 0.9655 0.107278
26 0 0 0 0.0921835 10341.4 1 0.965507 0.107279
27 0 0 0 0.0877395 10336.9 1 0.965514 0.10728
28 0 0 0 0.0834908 10332.5 1 0.965521 0.10728
29 0 0 0 0.0794273 10328.3 1 0.965528 0.107281
30 0 0 0 0.0755386 10324.4 1 0.965535 0.107282
31 0 0 0 0.0718143 10320.5 1 0.965541 0.107283
32 0 0 0 0.068244 10316.9 1 0.965547 0.107283
33 0 0 0 0.0648173 10313.4 1 0.965554 0.107284
34 0 0 0 0.0615241 10310 1 0.965559 0.107285
35 0 0 0 0.0583544 10306.7 1 0.965565 0.107285
36 0 0 0 0.0552985 10303.6 1 0.965571 0.107286
37 0 0 0 0.0523469 10300.6 1 0.965576 0.107287
38 0 0 0 0.0494906 10297.7 1 0.965581 0.107287
39 0 0 0 0.0467208 10294.8 1 0.965585 0.107288
40 0 0 0 0.0440292 10292.1 1 0.96559 0.107288
41 0 0 0 0.0414077 10289.4 1 0.965594 0.107289
42 0 0 0 0.0388488 10286.8 1 0.965598 0.107289
43 0 0 0 0.0363449 10284.2 1 0.965601 0.10729
44 0 0 0 0.0338895 10281.7 1 0.965605 0.10729
45 0 0 0 0.0314758 10279.2 1 0.965607 0.10729
46 0 0 0 0.029098 10276.8 1 0.96561 0.107291
47 0 0 0 0.0267506 10274.4 1 0.965612 0.107291
48 0 0 0 0.0244281 10272 1 0.965614 0.107291
49 0 0 0 0.0221258 10269.6 1 0.965615 0.107291
50 0 0 0 0.0198382 10267.3 1 0.965617 0.107291
51 0 0 0 0.0175613 10264.9 1 0.965617 0.107291
52 0 0 0 0.0152917 10262.6 1 0.965618 0.107291
53 0 0 0 0.0130267 10260.3 1 0.965617 0.107291
54 0 0 0 0.0107637 10258 1 0.965617 0.107291
55 0 0 0 0.00850111 10255.7 1 0.965616 0.107291
56 0 0 0 0.00623764 10253.3 1 0.965616 0.107291
57 0 0 0 0.00397293 10251 1 0.965615 0.107291
58 0 0 0 0.00170692 10248.7 1 0.965615 0.107291
59 0 0 0 0 3855.75 0.376283 0.965624 0.107292
60 0 0 0 -0.000570456 -0.584544 0 0.965643 0.107294
61 0 0 0 -0.000581007 -0.595355 0 0.965663 0.107296
62 0 0 0 -0.000591379 -0.605984 0 0.965683 0.107299
63 0 0 0 -0.000601388 -0.616239 0 0.965703 0.107301
64 0 0 0 -0.000611249 -0.626344 0 0.965723 0.107303
65 0 0 0 -0.000620914 -0.636247 0 0.965743 0.107305
66 0 0 0 -0.000630559 -0.646131 0 0.965763 0.107307
67 0 0 0 -0.000640244 -0.656055 0 0.965783 0.10731
68 0 0 0 -0.000650261 -0.66632 0 0.965802 0.107312
69 0 0 0 -0.000660701 -0.677018 0 0.965822 0.107314
70 0 0 0 -0.000671511 -0.688094 0 0.965841 0.107316
71 0 0 0 -0.000681943 -0.698783 0 0.96586 0.107318
72 0 0 0 -0.000691975 -0.709064 0 0.965879 0.10732
73 0 0 0 -0.000701357 -0.718677 0 0.965897 0.107322
74 0 0 0 -0.000710611 -0.728159 0 0.965916 0.107324
75 0 0 0 -0.00071991 -0.737688 0 0.965934 0.107326
76 0 0 0 -0.000729056 -0.74706 0 0.965952 0.107328
77 0 0 0 -0.000738472 -0.756708 0 0.965969 0.10733
78 0 0 0 -0.000747683 -0.766147 0 0.965987 0.107332
79 0 0 0 -0.000756961 -0.775655 0 0.966004 0.107334
80 0 0 0 -0.00076606 -0.784978 0 0.966021 0.107336
81 0 0 0 -0.000775066 -0.794206 0 0.966037 0.107338
82 0 0 0 -0.000783947 -0.803307 0 0.966054 0.10734
83 0 0 0 -0.000792689 -0.812264 0 0.96607 0.107341
84 0 0 0 -0.000801336 -0.821125 0 0.966086 0.107343
85 0 0 0 -0.000809824 -0.829822 0 0.966101 0.107345
86 0 0 0 -0.000818221 -0.838427 0 0.966117 0.107347
87 0 0 0 -0.000826453 -0.846863 0 0.966132 0.107348
88 0 0 0 -0.000834581 -0.855192 0 0.966147 0.10735
89 0 0 0 -0.000842555 -0.863362 0 0.966161 0.107352
90 0 0 0 -0.000850404 -0.871405 0 0.966176 0.107353
91 0 0 0 -0.00085811 -0.879301 0 0.96619 0.107355
92 0 0 0 -0.000865675 -0.887053 0 0.966204 0.107356
93 0 0 0 -0.000873103 -0.894665 0 0.966217 0.107358
94 0 0 0 -0.000880384 -0.902125 0 0.966231 0.107359
95 0 0 0 -0.000887529 -0.909446 0 0.966244 0.107361
96 0 0 0 -0.000894527 -0.916617 0 0.966257 0.107362
97 0 0 0 -0.000901387 -0.923647 0 0.966269 0.107364
98 0 0 0 -0.000908104 -0.93053 0 0.966282 0.107365
99 0 0 0 -0.000914681 -0.937269 0 0.966294 0.107366
100 0 0 0 -0.000921117 -0.943864 0 0.966306 0.107368
101 0 0 0 -0.00092741 -0.950313 0 0.966317 0.107369
102 0 0 0 -0.000933563 -0.956618 0 0.966329 0.10737
103 0 0 0 -0.000939573 -0.962776 0 0.96634 0.107371
104 0 0 0 -0.000945442 -0.96879 0 0.96635 0.107373
105 0 0 0 -0.000951168 -0.974657 0 0.966361 0.107374
106 0 0 0 -0.000956753 -0.98038 0 0.966371 0.107375
107 0 0 0 -0.000962197 -0.985958 0 0.966382 0.107376
108 0 0 0 -0.0009675 -0.991392 0 0.966391 0.107377
109 0 0 0 -0.000972662 -0.996682 0 0.966401 0.107378
110 0 0 0 -0.000977684 -1.00183 0 0.966411 0.107379
111 0 0 0 -0.000982568 -1.00683 0 0.96642 0.10738
112 0 0 0 -0.000987312 -1.01169 0 0.966429 0.107381
113 0 0 0 -0.000991918 -1.01641 0 0.966437 0.107382
114 0 0 0 -0.000996386 -1.02099 0 0.966446 0.107383
115 0 0 0 -0.00100072 -1.02543 0 0.966454 0.107384
116 0 0 0 -0.00100491 -1.02973 0 0.966462 0.107385
117 0 0 0 -0.00100897 -1.03389 0 0.966469 0.107386
118 0 0 0 -0.00101289 -1.03791 0 0.966477 0.107386
119 0 0 0 -0.00101668 -1.04179 0 0.966484 0.107387
120 0 0 0 -0.00102034 -1.04553 0 0.966491 0.107388
121 0 0 0 -0.00102386 -1.04914 0 0.966498 0.107389
122 0 0 0 -0.00102724 -1.05261 0 0.966504 0.107389
123 0 0 0 -0.0010305 -1.05595 0 0.96651 0.10739
124 0 0 0 -0.00103362 -1.05914 0 0.966516 0.107391
125 0 0 0 -0.00103661 -1.06221 0 0.966522 0.107391
126 0 0 0 -0.00103947 -1.06514 0 0.966527 0.107392
127 0 0 0 -0.0010422 -1.06794 0 0.966533 0.107393
128 0 0 0 -0.0010448 -1.0706 0 0.966538 0.107393
129 0 0 0 -0.00104727 -1.07313 0 0.966543 0.107394
130 0 0 0 -0.00104961 -1.07553 0 0.966547 0.107394
131 0 0 0 -0.00105182 -1.07779 0 0.966551 0.107395
132 0 0 0 -0.0010539 -1.07993 0 0.966555 0.107395
133 0 0 0 -0.00105585 -1.08193 0 0.966559 0.107396
134 0 0 0 -0.00105768 -1.0838 0 0.966563 0.107396
135 0 0 0 -0.00105938 -1.08554 0 0.966566 0.107396
136 0 0 0 -0.00106095 -1.08715 0 0.966569 0.107397
137 0 0 0 -0.0010624 -1.08864 0 0.966572 0.107397
138 0 0 0 -0.00106372 -1.08999 0 0.966575 0.107397
139 0 0 0 -0.00106491 -1.09121 0 0.966577 0.107397
140 0 0 0 -0.00106598 -1.09231 0 0.966579 0.107398
141 0 0 0 -0.00106693 -1.09327 0 0.966581 0.107398
142 0 0 0 -0.00106774 -1.09411 0 0.966583 0.107398
143 0 0 0 -0.00106844 -1.09482 0 0.966584 0.107398
144 0 0 0 -0.001069 -1.0954 0 0.966585 0.107398
145 0 0 0 -0.00106944 -1.09585 0 0.966586 0.107398
146 0 0 0 -0.00106976 -1.09618 0 0.966587 0.107399
147 0 0 0 -0.00106995 -1.09638 0 0.966587 0.107399
148 0 0 0 -0.00107002 -1.09645 0 0.966587 0.107399
149 0 0 0 -0.00107002 -1.09645 0 0.966587 0.107399
0 1 0 0 0.280028 10533.9 1 0.965384 0.107265
1 1 -2.18795e-07 6.97463e-06 0.272894 10526.6 1 0.965384 0.107265
2 1 -3.70821e-06 9.88352e-06 0.264907 10518.4 1 0.965382 0.107263
3 1 -1.03093e-05 1.14814e-05 0.255547 10508.8 1 0.965381 0.107261
4 1 -1.8881e-05 1.2445e-05 0.246541 10499.6 1 0.965381 0.107258
5 1 -2.87687e-05 1.30143e-05 0.237647 10490.5 1 0.965382 0.107255
6 1 -3.94905e-05 1.32727e-05 0.228848 10481.5 1 0.965383 0.107251
7 1 -5.06613e-05 1.32807e-05 0.22013 10472.5 1 0.965385 0.107248
8 1 -6.19754e-05 1.30926e-05 0.211533 10463.7 1 0.965389 0.107245
9 1 -7.31947e-05 1.2754e-05 0.203066 10455 1 0.965392 0.107242
10 1 -8.41353e-05 1.23011e-05 0.194758 10446.5 1 0.965397 0.107239
11 1 -9.4656e-05 1.17622e-05 0.186623 10438.2 1 0.965402 0.107236
12 1 -0.00010465 1.11602e-05 0.178683 10430 1 0.965408 0.107233
13 1 -0.000114036 1.05133e-05 0.170951 10422.1 1 0.965414 0.107231
14 1 -0.000122758 9.83608e-06 0.163441 10414.4 1 0.96542 0.107229
15 1 -0.000130774 9.14035e-06 0.156162 10407 1 0.965427 0.107227
16 1 -0.000138057 8.43553e-06 0.149124 10399.8 1 0.965434 0.107226
17 1 -0.000144594 7.72918e-06 0.142331 10392.8 1 0.965441 0.107224
18 1 -0.000150378 7.02726e-06 0.135787 10386.1 1 0.965448 0.107223
19 1 -0.000155409 6.33447e-06 0.129493 10379.6 1 0.965455 0.107223
20 1 -0.000159696 5.65443e-06 0.123449 10373.4 1 0.965463 0.107222
21 1 -0.00016325 4.98986e-06 0.117652 10367.5 1 0.96547 0.107222
22 1 -0.000166084 4.34276e-06 0.112098 10361.8 1 0.965478 0.107222
23 1 -0.000168217 3.71452e-06 0.106782 10356.4 1 0.965485 0.107222
24 1 -0.000169666 3.10601e-06 0.101696 10351.2 1 0.965492 0.107222
25 1 -0.000170453 2.51772e-06 0.0968324 10346.2 1 0.9655 0.107223
26 1 -0.000170598 1.94984e-06 0.0921835 10341.4 1 0.965507 0.107224
27 1 -0.000170121 1.4023e-06 0.0877395 10336.9 1 0.965514 0.107225
28 1 -0.000169046 8.74852e-07 0.0834908 10332.5 1 0.965521 0.107226
29 1 -0.000167392 3.67156e-07 0.0794273 10328.3 1 0.965528 0.107227
30 1 -0.000165181 -1.21199e-07 0.0755386 10324.4 1 0.965535 0.107229
31 1 -0.000162433 -5.90632e-07 0.0718143 10320.5 1 0.965541 0.10723
32 1 -0.00015917 -1.04153e-06 0.068244 10316.9 1 0.965547 0.107232
33 1 -0.000155411 -1.47419e-06 0.0648173 10313.4 1 0.965554 0.107234
34 1 -0.000151177 -1.88883e-06 0.0615241 10310 1 0.965559 0.107236
35 1 -0.000146489 -2.28547e-06 0.0583544 10306.7 1 0.965565 0.107238
36 1 -0.000141368 -2.664e-06 0.0552985 10303.6 1 0.965571 0.107241
37 1 -0.000135835 -3.02404e-06 0.0523469 10300.6 1 0.965576 0.107243
38 1 -0.000129914 -3.365e-06 0.0494906 10297.7 1 0.965581 0.107245
39 1 -0.000123627 -3.68596e-06 0.0467208 10294.8 1 0.965585 0.107248
40 1 -0.000117 -3.98571e-06 0.0440292 10292.1 1 0.96559 0.107251
41 1 -0.000110062 -4.26264e-06 0.0414077 10289.4 1 0.965594 0.107253
42 1 -0.000102843 -4.51476e-06 0.0388488 10286.8 1 0.965598 0.107256
43 1 -9.53763e-05 -4.73958e-06 0.0363449 10284.2 1 0.965601 0.107259
44 1 -8.77e-05 -4.93408e-06 0.0338895 10281.7 1 0.965605 0.107262
45 1 -7.98564e-05 -5.09462e-06 0.0314758 10279.2 1 0.965607 0.107265
46 1 -7.18937e-05 -5.21678e-06 0.029098 10276.8 1 0.96561 0.107267
47 1 -6.38668e-05 -5.29515e-06 0.0267506 10274.4 1 0.965612 0.10727
48 1 -5.5839e-05 -5.32305e-06 0.0244281 10272 1 0.965614 0.107273
49 1 -4.78839e-05 -5.29191e-06 0.0221257 10269.6 1 0.965615 0.107276
50 1 -4.00886e-05 -5.19047e-06 0.0198382 10267.3 1 0.965617 0.107278
51 1 -3.25577e-05 -5.00355e-06 0.0175613 10264.9 1 0.965617 0.107281
52 1 -2.54198e-05 -4.7107e-06 0.0152917 10262.6 1 0.965618 0.107283
53 1 -1.88346e-05 -4.28534e-06 0.0130267 10260.3 1 0.965617 0.107285
54 1 -1.30008e-05 -3.69493e-06 0.0107637 10258 1 0.965617 0.107287
55 1 -8.15921e-06 -2.90775e-06 0.00850111 10255.7 1 0.965616 0.107288
56 1 -4.58485e-06 -1.89505e-06 0.00623764 10253.3 1 0.965616 0.107289
57 1 -2.51563e-06 -7.9217e-07 0.00397293 10251 1 0.965615 0.10729
58 1 -1.93884e-06 2.68107e-07 0.00170692 10248.7 1 0.965615 0.10729
59 1 0 0 0 3855.78 0.376286 0.965624 0.107292
60 1 0 0 -0.000570456 -0.584544 0 0.965643 0.107294
61 1 0 0 -0.000581006 -0.595354 0 0.965663 0.107296
62 1 0 0 -0.000591379 -0.605983 0 0.965683 0.107299
63 1 0 0 -0.000601388 -0.616239 0 0.965703 0.107301
64 1 0 0 -0.000611249 -0.626343 0 0.965723 0.107303
65 1 0 0 -0.000620913 -0.636247 0 0.965743 0.107305
66 1 0 0 -0.000630559 -0.646131 0 0.965763 0.107307
67 1 0 0 -0.000640244 -0.656055 0 0.965783 0.10731
68 1 0 0 -0.000650261 -0.666319 0 0.965802 0.107312
69 1 0 0 -0.000660701 -0.677017 0 0.965822 0.107314
70 1 0 0 -0.000671511 -0.688094 0 0.965841 0.107316
71 1 0 0 -0.000681943 -0.698783 0 0.96586 0.107318
72 1 0 0 -0.000691975 -0.709063 0 0.965879 0.10732
73 1 0 0 -0.000701357 -0.718677 0 0.965897 0.107322
74 1 0 0 -0.00071061 -0.728159 0 0.965916 0.107324
75 1 0 0 -0.00071991 -0.737688 0 0.965934 0.107326
76 1 0 0 -0.000729055 -0.747059 0 0.965952 0.107328
77 1 0 0 -0.000738471 -0.756708 0 0.965969 0.10733
78 1 0 0 -0.000747683 -0.766147 0 0.965987 0.107332
79 1 0 0 -0.000756961 -0.775654 0 0.966004 0.107334
80 1 0 0 -0.00076606 -0.784977 0 0.966021 0.107336
81 1 0 0 -0.000775066 -0.794206 0 0.966037 0.107338
82 1 0 0 -0.000783947 -0.803306 0 0.966054 0.10734
83 1 0 0 -0.000792688 -0.812264 0 0.96607 0.107341
84 1 0 0 -0.000801335 -0.821124 0 0.966086 0.107343
85 1 0 0 -0.000809824 -0.829822 0 0.966101 0.107345
86 1 0 0 -0.00081822 -0.838426 0 0.966117 0.107347
87 1 0 0 -0.000826453 -0.846862 0 0.966132 0.107348
88 1 0 0 -0.000834581 -0.855191 0 0.966147 0.10735
89 1 0 0 -0.000842554 -0.863361 0 0.966161 0.107352
90 1 0 0 -0.000850404 -0.871405 0 0.966176 0.107353
91 1 0 0 -0.00085811 -0.879301 0 0.96619 0.107355
92 1 0 0 -0.000865675 -0.887053 0 0.966204 0.107356
93 1 0 0 -0.000873103 -0.894665 0 0.966217 0.107358
94 1 0 0 -0.000880384 -0.902125 0 0.966231 0.107359
95 1 0 0 -0.000887529 -0.909446 0 0.966244 0.107361
96 1 0 0 -0.000894526 -0.916617 0 0.966257 0.107362
97 1 0 0 -0.000901387 -0.923647 0 0.966269 0.107364
98 1 0 0 -0.000908104 -0.93053 0 0.966282 0.107365
99 1 0 0 -0.000914681 -0.937269 0 0.966294 0.107366
100 1 0 0 -0.000921117 -0.943864 0 0.966306 0.107368
101 1 0 0 -0.00092741 -0.950313 0 0.966317 0.107369
102 1 0 0 -0.000933563 -0.956618 0 0.966328 0.10737
103 1 0 0 -0.000939573 -0.962776 0 0.96634 0.107371
104 1 0 0 -0.000945442 -0.96879 0 0.96635 0.107373
105 1 0 0 -0.000951168 -0.974657 0 0.966361 0.107374
106 1 0 0 -0.000956753 -0.98038 0 0.966371 0.107375
107 1 0 0 -0.000962197 -0.985958 0 0.966382 0.107376
108 1 0 0 -0.0009675 -0.991392 0 0.966391 0.107377
109 1 0 0 -0.000972662 -0.996682 0 0.966401 0.107378
110 1 0 0 -0.000977684 -1.00183 0 0.96641 0.107379
111 1 0 0 -0.000982568 -1.00683 0 0.96642 0.10738
112 1 0 0 -0.000987312 -1.01169 0 0.966429 0.107381
113 1 0 0 -0.000991918 -1.01641 0 0.966437 0.107382
114 1 0 0 -0.000996386 -1.02099 0 0.966446 0.107383
115 1 0 0 -0.00100072 -1.02543 0 0.966454 0.107384
116 1 0 0 -0.00100491 -1.02973 0 0.966462 0.107385
117 1 0 0 -0.00100897 -1.03389 0 0.966469 0.107386
118 1 0 0 -0.00101289 -1.03791 0 0.966477 0.107386
119 1 0 0 -0.00101668 -1.04179 0 0.966484 0.107387
120 1 0 0 -0.00102034 -1.04553 0 0.966491 0.107388
121 1 0 0 -0.00102386 -1.04914 0 0.966498 0.107389
122 1 0 0 -0.00102724 -1.05261 0 0.966504 0.107389
123 1 0 0 -0.0010305 -1.05595 0 0.96651 0.10739
124 1 0 0 -0.00103362 -1.05914 0 0.966516 0.107391
125 1 0 0 -0.00103661 -1.06221 0 0.966522 0.107391
126 1 0 0 -0.00103947 -1.06514 0 0.966527 0.107392
127 1 0 0 -0.0010422 -1.06794 0 0.966533 0.107393
128 1 0 0 -0.0010448 -1.0706 0 0.966538 0.107393
129 1 0 0 -0.00104727 -1.07313 0 0.966542 0.107394
130 1 0 0 -0.00104961 -1.07553 0 0.966547 0.107394
131 1 0 0 -0.00105182 -1.07779 0 0.966551 0.107395
132 1 0 0 -0.0010539 -1.07993 0 0.966555 0.107395
133 1 0 0 -0.00105585 -1.08193 0 0.966559 0.107396
134 1 0 0 -0.00105768 -1.0838 0 0.966563 0.107396
135 1 0 0 -0.00105938 -1.08554 0 0.966566 0.107396
136 1 0 0 -0.00106095 -1.08715 0 0.966569 0.107397
137 1 0 0 -0.0010624 -1.08864 0 0.966572 0.107397
138 1 0 0 -0.00106372 -1.08999 0 0.966575 0.107397
139 1 0 0 -0.00106491 -1.09121 0 0.966577 0.107397
140 1 0 0 -0.00106598 -1.09231 0 0.966579 0.107398
141 1 0 0 -0.00106693 -1.09327 0 0.966581 0.107398
142 1 0 0 -0.00106774 -1.09411 0 0.966582 0.107398
143 1 0 0 -0.00106844 -1.09482 0 0.966584 0.107398
144 1 0 0 -0.001069 -1.0954 0 0.966585 0.107398
145 1 0 0 -0.00106944 -1.09585 0 0.966586 0.107398
146 1 0 0 -0.00106976 -1.09618 0 0.966587 0.107399
147 1 0 0 -0.00106995 -1.09638 0 0.966587 0.107399
148 1 0 0 -0.00107002 -1.09645 0 0.966587 0.107399
149 1 0 0 -0.00107002 -1.09645 0 0.966587 0.107399
0 2 0 0 0.28043 10534.3 1 0.965401 0.107267
1 2 -3.0021e-06 9.57461e-06 0.272879 10526.6 1 0.965401 0.107266
2 2 -9.63808e-06 1.71769e-05 0.26438 10517.9 1 0.9654 0.107263
3 2 -2.10399e-05 2.22233e-05 0.255147 10508.4 1 0.965399 0.107259
4 2 -3.61842e-05 2.56085e-05 0.246426 10499.5 1 0.965399 0.107254
5 2 -5.3938e-05 2.77712e-05 0.237552 10490.4 1 0.965399 0.107248
6 2 -7.33739e-05 2.89926e-05 0.228788 10481.4 1 0.9654 0.107242
7 2 -9.3779e-05 2.94695e-05 0.22007 10472.5 1 0.965402 0.107236
8 2 -0.000114591 2.9361e-05 0.211476 10463.6 1 0.965405 0.107229
9 2 -0.000135361 2.87958e-05 0.203004 10455 1 0.965408 0.107223
10 2 -0.000155735 2.78772e-05 0.194692 10446.5 1 0.965412 0.107217
11 2 -0.000175434 2.66882e-05 0.186553 10438.1 1 0.965417 0.107211
12 2 -0.000194243 2.52954e-05 0.178609 10430 1 0.965422 0.107206
13 2 -0.000211995 2.37525e-05 0.170873 10422 1 0.965427 0.1072
14 2 -0.000228569 2.21028e-05 0.16336 10414.3 1 0.965433 0.107196
15 2 -0.000243874 2.03814e-05 0.156079 10406.9 1 0.965439 0.107192
16 2 -0.000257848 1.86164e-05 0.149039 10399.7 1 0.965445 0.107188
17 2 -0.000270451 1.68307e-05 0.142245 10392.7 1 0.965452 0.107185
18 2 -0.000281662 1.50424e-05 0.135701 10386 1 0.965458 0.107182
19 2 -0.000291474 1.32659e-05 0.129408 10379.6 1 0.965465 0.10718
20 2 -0.000299892 1.15126e-05 0.123365 10373.4 1 0.965472 0.107178
21 2 -0.000306929 9.79118e-06 0.117569 10367.4 1 0.965479 0.107176
22 2 -0.000312609 8.10814e-06 0.112017 10361.7 1 0.965486 0.107175
23 2 -0.000316956 6.46829e-06 0.106702 10356.3 1 0.965493 0.107175
24 2 -0.000320003 4.87497e-06 0.101619 10351.1 1 0.965499 0.107175
25 2 -0.000321784 3.33033e-06 0.0967588 10346.1 1 0.965506 0.107175
26 2 -0.000322334 1.8356e-06 0.092113 10341.3 1 0.965513 0.107176
27 2 -0.000321692 3.91318e-07 0.0876725 10336.8 1 0.96552 0.107177
28 2 -0.000319895 -1.00251e-06 0.0834274 10332.4 1 0.965526 0.107178
29 2 -0.000316983 -2.34622e-06 0.0793675 10328.3 1 0.965533 0.10718
30 2 -0.000312994 -3.64031e-06 0.0754826 10324.3 1 0.965539 0.107182
31 2 -0.000307967 -4.88534e-06 0.0717621 10320.5 1 0.965545 0.107184
32 2 -0.000301943 -6.08179e-06 0.0681955 10316.8 1 0.965551 0.107187
33 2 -0.000294959 -7.22993e-06 0.0647726 10313.3 1 0.965557 0.10719
34 2 -0.000287055 -8.32969e-06 0.061483 10310 1 0.965562 0.107193
35 2 -0.000278272 -9.38062e-06 0.0583169 10306.7 1 0.965568 0.107196
36 2 -0.000268652 -1.03817e-05 0.0552644 10303.6 1 0.965573 0.1072
37 2 -0.000258236 -1.13313e-05 0.0523162 10300.6 1 0.965578 0.107204
38 2 -0.00024707 -1.22271e-05 0.049463 10297.6 1 0.965582 0.107208
39 2 -0.000235202 -1.30658e-05 0.0466964 10294.8 1 0.965587 0.107213
40 2 -0.000222683 -1.38434e-05 0.0440077 10292 1 0.965591 0.107217
41 2 -0.000209568 -1.45545e-05 0.041389 10289.4 1 0.965595 0.107222
42 2 -0.000195919 -1.51927e-05 0.0388327 10286.7 1 0.965598 0.107227
43 2 -0.000181803 -1.57503e-05 0.0363313 10284.2 1 0.965602 0.107232
44 2 -0.000167294 -1.62178e-05 0.0338784 10281.7 1 0.965605 0.107237
45 2 -0.000152478 -1.6584e-05 0.0314669 10279.2 1 0.965607 0.107242
46 2 -0.000137448 -1.68354e-05 0.0290913 10276.8 1 0.96561 0.107247
47 2 -0.000122313 -1.69559e-05 0.0267458 10274.4 1 0.965612 0.107252
48 2 -0.000107195 -1.69256e-05 0.0244247 10272 1 0.965614 0.107257
49 2 -9.22351e-05 -1.67193e-05 0.0221233 10269.6 1 0.965615 0.107262
50 2 -7.75984e-05 -1.63051e-05 0.0198365 10267.3 1 0.965616 0.107267
51 2 -6.34768e-05 -1.56405e-05 0.0175605 10264.9 1 0.965616 0.107271
52 2 -5.0099e-05 -1.46698e-05 0.0152918 10262.6 1 0.965617 0.107275
53 2 -3.77388e-05 -1.33219e-05 0.0130274 10260.3 1 0.965617 0.107279
54 2 -2.67223e-05 -1.15139e-05 0.0107649 10258 1 0.965616 0.107283
55 2 -1.74219e-05 -9.17582e-06 0.0085024 10255.7 1 0.965616 0.107286
56 2 -1.02086e-05 -6.29884e-06 0.00623895 10253.3 1 0.965615 0.107288
57 2 -5.33699e-06 -3.18662e-06 0.00397381 10251 1 0.965614 0.107289
58 2 -2.76333e-06 -5.23132e-07 0.00170744 10248.7 1 0.965614 0.10729
59 2 0 0 0 3813.25 0.372135 0.965623 0.107292
60 2 0 0 -0.000570553 -0.584643 0 0.965643 0.107294
61 2 0 0 -0.000581243 -0.595597 0 0.965663 0.107296
62 2 0 0 -0.000591521 -0.606129 0 0.965683 0.107299
63 2 0 0 -0.00060169 -0.616549 0 0.965703 0.107301
64 2 0 0 -0.000611527 -0.626629 0 0.965723 0.107303
65 2 0 0 -0.00062137 -0.636714 0 0.965743 0.107305
66 2 0 0 -0.000631093 -0.646678 0 0.965763 0.107307
67 2 0 0 -0.000640901 -0.656728 0 0.965783 0.10731
68 2 0 0 -0.000650755 -0.666826 0 0.965802 0.107312
69 2 0 0 -0.000660699 -0.677015 0 0.965822 0.107314
70 2 0 0 -0.00067103 -0.687601 0 0.965841 0.107316
71 2 0 0 -0.0006812 -0.698023 0 0.96586 0.107318
72 2 0 0 -0.000691352 -0.708425 0 0.965879 0.10732
73 2 0 0 -0.000701025 -0.718337 0 0.965897 0.107322
74 2 0 0 -0.000710411 -0.727955 0 0.965916 0.107324
75 2 0 0 -0.000719928 -0.737707 0 0.965934 0.107326
76 2 0 0 -0.000729099 -0.747105 0 0.965952 0.107328
77 2 0 0 -0.000738517 -0.756755 0 0.965969 0.10733
78 2 0 0 -0.000747729 -0.766194 0 0.965987 0.107332
79 2 0 0 -0.000756966 -0.775659 0 0.966004 0.107334
80 2 0 0 -0.000766084 -0.785003 0 0.966021 0.107336
81 2 0 0 -0.000775077 -0.794218 0 0.966037 0.107338
82 2 0 0 -0.000783983 -0.803343 0 0.966054 0.10734
83 2 0 0 -0.00079272 -0.812297 0 0.96607 0.107341
84 2 0 0 -0.000801384 -0.821174 0 0.966086 0.107343
85 2 0 0 -0.00080987 -0.82987 0 0.966101 0.107345
86 2 0 0 -0.000818274 -0.838481 0 0.966117 0.107347
87 2 0 0 -0.000826508 -0.846919 0 0.966132 0.107348
88 2 0 0 -0.000834637 -0.855248 0 0.966147 0.10735
89 2 0 0 -0.000842614 -0.863422 0 0.966161 0.107352
90 2 0 0 -0.000850461 -0.871463 0 0.966176 0.107353
91 2 0 0 -0.000858171 -0.879363 0 0.96619 0.107355
92 2 0 0 -0.000865735 -0.887115 0 0.966204 0.107356
93 2 0 0 -0.000873167 -0.89473 0 0.966217 0.107358
94 2 0 0 -0.00088045 -0.902193 0 0.966231 0.107359
95 2 0 0 -0.000887598 -0.909517 0 0.966244 0.107361
96 2 0 0 -0.000894598 -0.91669 0 0.966257 0.107362
97 2 0 0 -0.000901461 -0.923722 0 0.966269 0.107364
98 2 0 0 -0.000908179 -0.930607 0 0.966282 0.107365
99 2 0 0 -0.000914757 -0.937347 0 0.966294 0.107366
100 2 0 0 -0.000921193 -0.943942 0 0.966306 0.107368
101 2 0 0 -0.000927486 -0.950391 0 0.966317 0.107369
102 2 0 0 -0.000933639 -0.956695 0 0.966329 0.10737
103 2 0 0 -0.000939649 -0.962853 0 0.96634 0.107371
104 2 0 0 -0.000945517 -0.968867 0 0.966351 0.107373
105 2 0 0 -0.000951243 -0.974734 0 0.966361 0.107374
106 2 0 0 -0.000956828 -0.980457 0 0.966372 0.107375
107 2 0 0 -0.000962272 -0.986035 0 0.966382 0.107376
108 2 0 0 -0.000967574 -0.991469 0 0.966392 0.107377
109 2 0 0 -0.000972737 -0.996759 0 0.966401 0.107378
110 2 0 0 -0.000977759 -1.0019 0 0.966411 0.107379
111 2 0 0 -0.000982642 -1.00691 0 0.96642 0.10738
112 2 0 0 -0.000987386 -1.01177 0 0.966429 0.107381
113 2 0 0 -0.000991992 -1.01649 0 0.966437 0.107382
114 2 0 0 -0.00099646 -1.02107 0 0.966446 0.107383
115 2 0 0 -0.00100079 -1.02551 0 0.966454 0.107384
116 2 0 0 -0.00100499 -1.0298 0 0.966462 0.107385
117 2 0 0 -0.00100904 -1.03396 0 0.966469 0.107386
118 2 0 0 -0.00101297 -1.03798 0 0.966477 0.107386
119 2 0 0 -0.00101675 -1.04186 0 0.966484 0.107387
120 2 0 0 -0.00102041 -1.04561 0 0.966491 0.107388
121 2 0 0 -0.00102393 -1.04921 0 0.966498 0.107389
122 2 0 0 -0.00102731 -1.05268 0 0.966504 0.107389
123 2 0 0 -0.00103057 -1.05602 0 0.96651 0.10739
124 2 0 0 -0.00103369 -1.05922 0 0.966516 0.107391
125 2 0 0 -0.00103668 -1.06228 0 0.966522 0.107391
126 2 0 0 -0.00103954 -1.06521 0 0.966528 0.107392
127 2 0 0 -0.00104227 -1.06801 0 0.966533 0.107393
128 2 0 0 -0.00104487 -1.07067 0 0.966538 0.107393
129 2 0 0 -0.00104734 -1.0732 0 0.966543 0.107394
130 2 0 0 -0.00104967 -1.0756 0 0.966547 0.107394
131 2 0 0 -0.00105189 -1.07786 0 0.966551 0.107395
132 2 0 0 -0.00105397 -1.08 0 0.966555 0.107395
133 2 0 0 -0.00105592 -1.082 0 0.966559 0.107396
134 2 0 0 -0.00105775 -1.08387 0 0.966563 0.107396
135 2 0 0 -0.00105945 -1.08561 0 0.966566 0.107396
136 2 0 0 -0.00106102 -1.08722 0 0.966569 0.107397
137 2 0 0 -0.00106247 -1.08871 0 0.966572 0.107397
138 2 0 0 -0.00106379 -1.09006 0 0.966575 0.107397
139 2 0 0 -0.00106498 -1.09128 0 0.966577 0.107397
140 2 0 0 -0.00106605 -1.09238 0 0.966579 0.107398
141 2 0 0 -0.00106699 -1.09334 0 0.966581 0.107398
142 2 0 0 -0.00106781 -1.09418 0 0.966583 0.107398
143 2 0 0 -0.0010685 -1.09489 0 0.966584 0.107398
144 2 0 0 -0.00106907 -1.09547 0 0.966585 0.107398
145 2 0 0 -0.00106951 -1.09592 0 0.966586 0.107398
146 2 0 0 -0.00106983 -1.09625 0 0.966587 0.107399
147 2 0 0 -0.00107002 -1.09645 0 0.966587 0.107399
148 2 0 0 -0.00107009 -1.09652 0 0.966587 0.107399
149 2 0 0 -0.00107009 -1.09652 0 0.966587 0.107399
0 3 0 0 0.28029 10534.2 1 0.965419 0.107268
1 3 -4.9227e-06 1.50678e-05 0.272335 10526 1 0.965419 0.107267
2 3 -1.48096e-05 2.83212e-05 0.263717 10517.2 1 0.965418 0.107263
3 3 -3.0485e-05 3.81604e-05 0.254986 10508.2 1 0.965416 0.107258
4 3 -5.08273e-05 4.51897e-05 0.246442 10499.5 1 0.965416 0.107251
5 3 -7.4644e-05 4.98818e-05 0.237478 10490.3 1 0.965416 0.107243
6 3 -0.00010086 5.27189e-05 0.228724 10481.3 1 0.965417 0.107234
7 3 -0.000128562 5.40708e-05 0.219969 10472.4 1 0.965419 0.107226
8 3 -0.000156994 5.42415e-05 0.211361 10463.5 1 0.965421 0.107217
9 3 -0.000185539 5.34765e-05 0.202868 10454.8 1 0.965424 0.107208
10 3 -0.000213702 5.19763e-05 0.194541 10446.3 1 0.965427 0.107199
11 3 -0.000241083 4.99042e-05 0.186387 10437.9 1 0.965431 0.107191
12 3 -0.000267365 4.73932e-05 0.178431 10429.8 1 0.965435 0.107183
13 3 -0.0002923 4.45515e-05 0.170684 10421.8 1 0.96544 0.107176
14 3 -0.000315697 4.14674e-05 0.163162 10414.1 1 0.965445 0.107169
15 3 -0.000337413 3.82129e-05 0.155874 10406.7 1 0.965451 0.107163
16 3 -0.000357342 3.48466e-05 0.148829 10399.5 1 0.965456 0.107157
17 3 -0.000375413 3.14161e-05 0.142032 10392.5 1 0.965462 0.107152
18 3 -0.00039158 2.796e-05 0.135487 10385.8 1 0.965468 0.107147
19 3 -0.000405819 2.45089e-05 0.129194 10379.3 1 0.965475 0.107144
20 3 -0.000418126 2.10876e-05 0.123153 10373.1 1 0.965481 0.107141
21 3 -0.000428507 1.77151e-05 0.11736 10367.2 1 0.965487 0.107138
22 3 -0.000436985 1.44063e-05 0.111813 10361.5 1 0.965494 0.107136
23 3 -0.000443586 1.11723e-05 0.106504 10356.1 1 0.9655 0.107135
24 3 -0.000448349 8.0213e-06 0.101427 10350.9 1 0.965506 0.107134
25 3 -0.000451314 4.95897e-06 0.0965744 10345.9 1 0.965513 0.107134
26 3 -0.000452527 1.98907e-06 0.0919368 10341.2 1 0.965519 0.107134
27 3 -0.000452037 -8.8612e-07 0.087505 10336.6 1 0.965525 0.107135
28 3 -0.000449893 -3.66546e-06 0.083269 10332.3 1 0.965531 0.107137
29 3 -0.000446149 -6.34853e-06 0.0792185 10328.1 1 0.965537 0.107139
30 3 -0.000440857 -8.93536e-06 0.0753431 10324.2 1 0.965543 0.107141
31 3 -0.000434072 -1.14261e-05 0.0716322 10320.4 1 0.965549 0.107144
32 3 -0.000425849 -1.38209e-05 0.0680752 10316.7 1 0.965555 0.107148
33 3 -0.000416242 -1.61193e-05 0.0646618 10313.2 1 0.96556 0.107151
34 3 -0.00040531 -1.83205e-05 0.0613816 10309.8 1 0.965565 0.107155
35 3 -0.00039311 -2.04226e-05 0.0582246 10306.6 1 0.96557 0.10716
36 3 -0.000379703 -2.2423e-05 0.055181 10303.5 1 0.965575 0.107165
37 3 -0.000365152 -2.43176e-05 0.0522414 10300.5 1 0.96558 0.10717
38 3 -0.000349524 -2.6101e-05 0.0493965 10297.6 1 0.965584 0.107176
39 3 -0.000332888 -2.77659e-05 0.0466377 10294.7 1 0.965588 0.107182
40 3 -0.000315322 -2.93034e-05 0.0439566 10292 1 0.965592 0.107188
41 3 -0.000296908 -3.07021e-05 0.041345 10289.3 1 0.965596 0.107194
42 3 -0.000277736 -3.19485e-05 0.0387955 10286.7 1 0.965599 0.107201
43 3 -0.000257905 -3.30262e-05 0.0363004 10284.1 1 0.965602 0.107207
44 3 -0.000237527 -3.39156e-05 0.0338535 10281.6 1 0.965605 0.107214
45 3 -0.000216725 -3.45937e-05 0.0314474 10279.2 1 0.965608 0.107221
46 3 -0.000195636 -3.5033e-05 0.0290769 10276.7 1 0.96561 0.107228
47 3 -0.000174416 -3.5201e-05 0.0267356 10274.3 1 0.965612 0.107235
48 3 -0.000153241 -3.50584e-05 0.0244181 10272 1 0.965613 0.107242
49 3 -0.000132309 -3.45575e-05 0.0221199 10269.6 1 0.965615 0.107249
50 3 -0.000111845 -3.36382e-05 0.019836 10267.3 1 0.965616 0.107256
51 3 -9.2106e-05 -3.2225e-05 0.0175627 10264.9 1 0.965616 0.107262
52 3 -7.33837e-05 -3.02216e-05 0.0152958 10262.6 1 0.965616 0.107268
53 3 -5.60118e-05 -2.75098e-05 0.0130325 10260.3 1 0.965616 0.107274
54 3 -4.03676e-05 -2.39567e-05 0.0107703 10258 1 0.965616 0.107279
55 3 -2.68707e-05 -1.94611e-05 0.00850775 10255.7 1 0.965615 0.107283
56 3 -1.59633e-05 -1.40473e-05 0.00624336 10253.3 1 0.965615 0.107286
57 3 -8.05475e-06 -8.12595e-06 0.00397706 10251 1 0.965614 0.107288
58 3 -3.43811e-06 -2.74191e-06 0.00170883 10248.7 1 0.965613 0.107289
59 3 0 0 0 3873.08 0.377974 0.965622 0.107292
60 3 0 0 -0.000571105 -0.585208 0 0.965642 0.107294
61 3 0 0 -0.000581615 -0.595978 0 0.965662 0.107296
62 3 0 0 -0.000591974 -0.606593 0 0.965682 0.107298
63 3 0 0 -0.000601891 -0.616755 0 0.965703 0.107301
64 3 0 0 -0.000611792 -0.6269 0 0.965723 0.107303
65 3 0 0 -0.000621465 -0.636812 0 0.965743 0.107305
66 3 0 0 -0.000631199 -0.646786 0 0.965763 0.107307
67 3 0 0 -0.00064102 -0.65685 0 0.965782 0.10731
68 3 0 0 -0.000651239 -0.667322 0 0.965802 0.107312
69 3 0 0 -0.00066123 -0.677559 0 0.965822 0.107314
70 3 0 0 -0.000671362 -0.687941 0 0.965841 0.107316
71 3 0 0 -0.000681051 -0.697869 0 0.96586 0.107318
72 3 0 0 -0.000690872 -0.707934 0 0.965879 0.10732
73 3 0 0 -0.000700719 -0.718024 0 0.965897 0.107322
74 3 0 0 -0.000710108 -0.727644 0 0.965916 0.107324
75 3 0 0 -0.000719846 -0.737623 0 0.965934 0.107326
76 3 0 0 -0.000729137 -0.747143 0 0.965952 0.107328
77 3 0 0 -0.000738599 -0.756839 0 0.965969 0.10733
78 3 0 0 -0.000747861 -0.76633 0 0.965987 0.107332
79 3 0 0 -0.000757073 -0.775769 0 0.966004 0.107334
80 3 0 0 -0.000766206 -0.785128 0 0.966021 0.107336
81 3 0 0 -0.000775189 -0.794333 0 0.966037 0.107338
82 3 0 0 -0.000784117 -0.803481 0 0.966054 0.10734
83 3 0 0 -0.000792858 -0.812438 0 0.96607 0.107341