Title="LBM for phase change with fin"
dt=1 dx=1
VARIABLES="X","Y","U","V","T","H","fl","pa","Test"
ZONE T="BOX",I=150,J=150,F=POINT
0 0 0 0 0.395685 15064.8 1 1.65331 0.183701
1 0 0 0 0.40282 15075.1 1 1.65331 0.183701
2 0 0 0 0.402746 15075 1 1.65331 0.1837
3 0 0 0 0.401644 15073.4 1 1.6533 0.1837
4 0 0 0 0.400922 15072.4 1 1.6533 0.183699
5 0 0 0 0.400111 15071.2 1 1.6533 0.183698
6 0 0 0 0.399024 15069.6 1 1.6533 0.183698
7 0 0 0 0.397499 15067.4 1 1.6533 0.183698
8 0 0 0 0.395477 15064.5 1 1.6533 0.183698
9 0 0 0 0.392881 15060.7 1 1.6533 0.183698
10 0 0 0 0.389688 15056.1 1 1.6533 0.183698
11 0 0 0 0.385873 15050.6 1 1.65331 0.183699
12 0 0 0 0.381447 15044.1 1 1.65331 0.183699
13 0 0 0 0.376425 15036.9 1 1.65332 0.1837
14 0 0 0 0.370843 15028.8 1 1.65333 0.183701
15 0 0 0 0.364746 15019.9 1 1.65333 0.183702
16 0 0 0 0.358192 15010.4 1 1.65334 0.183703
17 0 0 0 0.351247 15000.4 1 1.65335 0.183704
18 0 0 0 0.343983 14989.9 1 1.65336 0.183705
19 0 0 0 0.336476 14979 1 1.65337 0.183707
20 0 0 0 0.328805 14967.9 1 1.65338 0.183708
21 0 0 0 0.32105 14956.6 1 1.65339 0.183709
22 0 0 0 0.313289 14945.4 1 1.65341 0.183711
23 0 0 0 0.3056 14934.2 1 1.65342 0.183712
24 0 0 0 0.298056 14923.3 1 1.65343 0.183714
25 0 0 0 0.290726 14912.7 1 1.65344 0.183715
26 0 0 0 0.283673 14902.5 1 1.65345 0.183717
27 0 0 0 0.276957 14892.7 1 1.65346 0.183718
28 0 0 0 0.270628 14883.6 1 1.65348 0.183719
29 0 0 0 0.264733 14875 1 1.65349 0.183721
30 0 0 0 0.259311 14867.2 1 1.6535 0.183722
31 0 0 0 0.254392 14860 1 1.65351 0.183723
32 0 0 0 0.250002 14853.7 1 1.65352 0.183725
33 0 0 0 0.246159 14848.1 1 1.65353 0.183726
34 0 0 0 0.242874 14843.3 1 1.65354 0.183727
35 0 0 0 0.240149 14839.4 1 1.65355 0.183728
36 0 0 0 0.237981 14836.2 1 1.65356 0.183729
37 0 0 0 0.236362 14833.9 1 1.65357 0.18373
38 0 0 0 0.235273 14832.3 1 1.65357 0.183731
39 0 0 0 0.234695 14831.5 1 1.65358 0.183732
40 0 0 0 0.234597 14831.3 1 1.65359 0.183733
41 0 0 0 0.234946 14831.8 1 1.6536 0.183734
42 0 0 0 0.235704 14832.9 1 1.6536 0.183734
43 0 0 0 0.236828 14834.6 1 1.65361 0.183735
44 0 0 0 0.238271 14836.7 1 1.65362 0.183736
45 0 0 0 0.239984 14839.1 1 1.65362 0.183737
46 0 0 0 0.241913 14841.9 1 1.65363 0.183737
47 0 0 0 0.244006 14845 1 1.65364 0.183738
48 0 0 0 0.246205 14848.2 1 1.65364 0.183739
49 0 0 0 0.248456 14851.4 1 1.65365 0.183739
50 0 0 0 0.250704 14854.7 1 1.65365 0.18374
51 0 0 0 0.252894 14857.9 1 1.65366 0.183741
52 0 0 0 0.254975 14860.9 1 1.65367 0.183741
53 0 0 0 0.256897 14863.7 1 1.65367 0.183742
54 0 0 0 0.258614 14866.1 1 1.65368 0.183743
55 0 0 0 0.260085 14868.3 1 1.65368 0.183743
56 0 0 0 0.261271 14870 1 1.65369 0.183744
57 0 0 0 0.262142 14871.3 1 1.6537 0.183745
58 0 0 0 0.262668 14872 1 1.6537 0.183746
59 0 0 0 0.26283 14872.3 1 1.65371 0.183746
60 0 0 0 0.262613 14871.9 1 1.65371 0.183747
61 0 0 0 0.262008 14871.1 1 1.65372 0.183748
62 0 0 0 0.261012 14869.6 1 1.65372 0.183748
63 0 0 0 0.25963 14867.6 1 1.65373 0.183749
64 0 0 0 0.257872 14865.1 1 1.65373 0.18375
65 0 0 0 0.255754 14862 1 1.65374 0.18375
66 0 0 0 0.253297 14858.4 1 1.65375 0.183751
67 0 0 0 0.250529 14854.4 1 1.65375 0.183752
68 0 0 0 0.247483 14850 1 1.65376 0.183752
69 0 0 0 0.244195 14845.2 1 1.65376 0.183753
70 0 0 0 0.240705 14840.2 1 1.65377 0.183753
71 0 0 0 0.237058 14834.9 1 1.65377 0.183754
72 0 0 0 0.2333 14829.5 1 1.65378 0.183754
73 0 0 0 0.22948 14823.9 1 1.65378 0.183755
74 0 0 0 0.225647 14818.4 1 1.65378 0.183755
75 0 0 0 0.221853 14812.9 1 1.65379 0.183756
76 0 0 0 0.218147 14807.5 1 1.65379 0.183756
77 0 0 0 0.214579 14802.3 1 1.65379 0.183756
78 0 0 0 0.211198 14797.4 1 1.65379 0.183757
79 0 0 0 0.20805 14792.9 1 1.6538 0.183757
80 0 0 0 0.205178 14788.7 1 1.6538 0.183757
81 0 0 0 0.202623 14785 1 1.6538 0.183757
82 0 0 0 0.200421 14781.8 1 1.6538 0.183757
83 0 0 0 0.198604 14779.2 1 1.6538 0.183757
84 0 0 0 0.197201 14777.1 1 1.6538 0.183757
85 0 0 0 0.196233 14775.7 1 1.6538 0.183757
86 0 0 0 0.195718 14775 1 1.65379 0.183757
87 0 0 0 0.195668 14774.9 1 1.65379 0.183756
88 0 0 0 0.196089 14775.5 1 1.65379 0.183756
89 0 0 0 0.196981 14776.8 1 1.65379 0.183756
90 0 0 0 0.198339 14778.8 1 1.65378 0.183755
91 0 0 0 0.200153 14781.4 1 1.65378 0.183755
92 0 0 0 0.202405 14784.7 1 1.65377 0.183754
93 0 0 0 0.205075 14788.6 1 1.65377 0.183753
94 0 0 0 0.208136 14793 1 1.65376 0.183753
95 0 0 0 0.211558 14798 1 1.65376 0.183752
96 0 0 0 0.215304 14803.4 1 1.65375 0.183751
97 0 0 0 0.219336 14809.2 1 1.65374 0.18375
98 0 0 0 0.223612 14815.4 1 1.65373 0.183749
99 0 0 0 0.228088 14821.9 1 1.65372 0.183748
100 0 0 0 0.232717 14828.6 1 1.65372 0.183747
101 0 0 0 0.237452 14835.5 1 1.65371 0.183746
102 0 0 0 0.242244 14842.4 1 1.6537 0.183745
103 0 0 0 0.247046 14849.4 1 1.65369 0.183744
104 0 0 0 0.251809 14856.3 1 1.65368 0.183743
105 0 0 0 0.256487 14863.1 1 1.65367 0.183742
106 0 0 0 0.261038 14869.7 1 1.65366 0.18374
107 0 0 0 0.265418 14876 1 1.65365 0.183739
108 0 0 0 0.26959 14882.1 1 1.65364 0.183738
109 0 0 0 0.273521 14887.7 1 1.65363 0.183737
110 0 0 0 0.277181 14893 1 1.65362 0.183735
111 0 0 0 0.280544 14897.9 1 1.65361 0.183734
112 0 0 0 0.283592 14902.3 1 1.6536 0.183733
113 0 0 0 0.28631 14906.3 1 1.65359 0.183732
114 0 0 0 0.288691 14909.7 1 1.65358 0.18373
115 0 0 0 0.290733 14912.7 1 1.65357 0.183729
116 0 0 0 0.292439 14915.2 1 1.65356 0.183728
117 0 0 0 0.293821 14917.2 1 1.65355 0.183727
118 0 0 0 0.294893 14918.7 1 1.65354 0.183726
119 0 0 0 0.295677 14919.9 1 1.65353 0.183725
120 0 0 0 0.296201 14920.6 1 1.65352 0.183723
121 0 0 0 0.296495 14921 1 1.65351 0.183722
122 0 0 0 0.296596 14921.2 1 1.6535 0.183721
123 0 0 0 0.296543 14921.1 1 1.65349 0.18372
124 0 0 0 0.296378 14920.9 1 1.65349 0.183719
125 0 0 0 0.296145 14920.5 1 1.65348 0.183718
126 0 0 0 0.295889 14920.2 1 1.65347 0.183718
127 0 0 0 0.295654 14919.8 1 1.65346 0.183717
128 0 0 0 0.295486 14919.6 1 1.65346 0.183716
129 0 0 0 0.295426 14919.5 1 1.65345 0.183715
130 0 0 0 0.295513 14919.6 1 1.65345 0.183714
131 0 0 0 0.295781 14920 1 1.65344 0.183714
132 0 0 0 0.296261 14920.7 1 1.65343 0.183713
133 0 0 0 0.296976 14921.7 1 1.65343 0.183713
134 0 0 0 0.297945 14923.1 1 1.65343 0.183712
135 0 0 0 0.299179 14924.9 1 1.65342 0.183712
136 0 0 0 0.300679 14927.1 1 1.65342 0.183711
137 0 0 0 0.302442 14929.7 1 1.65342 0.183711
138 0 0 0 0.304454 14932.6 1 1.65341 0.183711
139 0 0 0 0.306699 14935.8 1 1.65341 0.183711
140 0 0 0 0.309145 14939.4 1 1.65341 0.183711
141 0 0 0 0.311766 14943.2 1 1.65341 0.183711
142 0 0 0 0.314511 14947.1 1 1.65341 0.183711
143 0 0 0 0.317361 14951.3 1 1.65341 0.183711
144 0 0 0 0.320238 14955.4 1 1.65341 0.183712
145 0 0 0 0.32316 14959.7 1 1.65341 0.183712
146 0 0 0 0.326077 14963.9 1 1.65342 0.183712
147 0 0 0 0.329289 14968.6 1 1.65342 0.183713
148 0 0 0 0.330906 14970.9 1 1.65342 0.183714
149 0 0 0 0.324618 14961.8 1 1.65342 0.183714
0 1 0 0 0.395685 15064.8 1 1.65331 0.183701
1 1 1.53811e-06 8.22658e-06 0.395685 15064.8 1 1.65331 0.183702
2 1 2.41638e-07 1.11213e-05 0.395194 15064.1 1 1.65331 0.1837
3 1 -4.08403e-06 1.30203e-05 0.393689 15061.9 1 1.6533 0.183697
4 1 -1.06505e-05 1.45551e-05 0.392584 15060.3 1 1.6533 0.183693
5 1 -1.92409e-05 1.60124e-05 0.391415 15058.6 1 1.6533 0.183688
6 1 -2.96335e-05 1.72452e-05 0.390003 15056.5 1 1.6533 0.183682
7 1 -4.15092e-05 1.82122e-05 0.38819 15053.9 1 1.6533 0.183675
8 1 -5.45376e-05 1.89203e-05 0.385921 15050.6 1 1.6533 0.183668
9 1 -6.84106e-05 1.93908e-05 0.383123 15046.6 1 1.6533 0.18366
10 1 -8.28455e-05 1.96417e-05 0.379776 15041.7 1 1.6533 0.183653
11 1 -9.75839e-05 1.96917e-05 0.37586 15036 1 1.65331 0.183645
12 1 -0.000112392 1.95605e-05 0.371385 15029.6 1 1.65331 0.183637
13 1 -0.000127063 1.92686e-05 0.366367 15022.3 1 1.65332 0.18363
14 1 -0.000141416 1.88366e-05 0.360843 15014.3 1 1.65333 0.183623
15 1 -0.000155294 1.82852e-05 0.354856 15005.6 1 1.65333 0.183616
16 1 -0.000168568 1.76343e-05 0.348464 14996.3 1 1.65334 0.18361
17 1 -0.000181131 1.69035e-05 0.341729 14986.6 1 1.65335 0.183604
18 1 -0.000192899 1.61114e-05 0.334719 14976.4 1 1.65336 0.183599
19 1 -0.000203812 1.52757e-05 0.327507 14966 1 1.65337 0.183594
20 1 -0.000213826 1.44126e-05 0.320167 14955.3 1 1.65338 0.18359
21 1 -0.000222919 1.3537e-05 0.312774 14944.6 1 1.65339 0.183587
22 1 -0.000231084 1.26624e-05 0.305401 14933.9 1 1.65341 0.183584
23 1 -0.000238327 1.18005e-05 0.298118 14923.4 1 1.65342 0.183581
24 1 -0.000244669 1.09612e-05 0.290992 14913.1 1 1.65343 0.183579
25 1 -0.000250138 1.01531e-05 0.284085 14903.1 1 1.65344 0.183577
26 1 -0.000254772 9.38304e-06 0.277455 14893.4 1 1.65345 0.183576
27 1 -0.000258617 8.65629e-06 0.271153 14884.3 1 1.65346 0.183576
28 1 -0.00026172 7.97678e-06 0.265225 14875.7 1 1.65348 0.183575
29 1 -0.000264133 7.34715e-06 0.25971 14867.7 1 1.65349 0.183575
30 1 -0.000265911 6.76886e-06 0.25464 14860.4 1 1.6535 0.183576
31 1 -0.000267107 6.24234e-06 0.250041 14853.7 1 1.65351 0.183576
32 1 -0.000267773 5.76714e-06 0.245933 14847.8 1 1.65352 0.183577
33 1 -0.000267963 5.34203e-06 0.24233 14842.5 1 1.65353 0.183578
34 1 -0.000267725 4.96512e-06 0.239238 14838.1 1 1.65354 0.183579
35 1 -0.000267106 4.634e-06 0.236658 14834.3 1 1.65355 0.183581
36 1 -0.000266149 4.34582e-06 0.234584 14831.3 1 1.65356 0.183582
37 1 -0.000264893 4.09735e-06 0.233004 14829 1 1.65357 0.183584
38 1 -0.000263373 3.88513e-06 0.231903 14827.4 1 1.65357 0.183586
39 1 -0.000261621 3.70547e-06 0.231257 14826.5 1 1.65358 0.183588
40 1 -0.000259664 3.55454e-06 0.23104 14826.2 1 1.65359 0.18359
41 1 -0.000257525 3.42846e-06 0.23122 14826.4 1 1.6536 0.183592
42 1 -0.000255223 3.32327e-06 0.23176 14827.2 1 1.6536 0.183594
43 1 -0.000252772 3.23506e-06 0.232623 14828.5 1 1.65361 0.183596
44 1 -0.000250184 3.15995e-06 0.233765 14830.1 1 1.65362 0.183598
45 1 -0.000247464 3.09416e-06 0.235141 14832.1 1 1.65362 0.1836
46 1 -0.000244618 3.03402e-06 0.236703 14834.4 1 1.65363 0.183603
47 1 -0.000241646 2.97602e-06 0.238405 14836.9 1 1.65364 0.183605
48 1 -0.000238544 2.91687e-06 0.240196 14839.5 1 1.65364 0.183607
49 1 -0.000235307 2.85345e-06 0.242027 14842.1 1 1.65365 0.18361
50 1 -0.000231928 2.78292e-06 0.243851 14844.8 1 1.65366 0.183612
51 1 -0.000228396 2.70269e-06 0.245619 14847.3 1 1.65366 0.183615
52 1 -0.0002247 2.61048e-06 0.247287 14849.7 1 1.65367 0.183618
53 1 -0.000220826 2.50429e-06 0.248812 14851.9 1 1.65367 0.18362
54 1 -0.00021676 2.38249e-06 0.250154 14853.9 1 1.65368 0.183623
55 1 -0.000212485 2.24375e-06 0.251277 14855.5 1 1.65368 0.183626
56 1 -0.000207988 2.08711e-06 0.25215 14856.8 1 1.65369 0.18363
57 1 -0.000203251 1.91197e-06 0.252745 14857.6 1 1.6537 0.183633
58 1 -0.000198258 1.71808e-06 0.253039 14858.1 1 1.6537 0.183636
59 1 -0.000192995 1.50552e-06 0.253015 14858 1 1.65371 0.18364
60 1 -0.000187447 1.27475e-06 0.252662 14857.5 1 1.65371 0.183644
61 1 -0.0001816 1.02654e-06 0.251972 14856.5 1 1.65372 0.183647
62 1 -0.000175442 7.61989e-07 0.250946 14855 1 1.65372 0.183652
63 1 -0.000168962 4.82498e-07 0.249586 14853.1 1 1.65373 0.183656
64 1 -0.000162153 1.8974e-07 0.247903 14850.6 1 1.65374 0.18366
65 1 -0.000155006 -1.14358e-07 0.245912 14847.7 1 1.65374 0.183665
66 1 -0.000147518 -4.27642e-07 0.243633 14844.4 1 1.65375 0.18367
67 1 -0.000139685 -7.47762e-07 0.241091 14840.8 1 1.65375 0.183675
68 1 -0.000131509 -1.0722e-06 0.238313 14836.7 1 1.65376 0.18368
69 1 -0.000122992 -1.39831e-06 0.235333 14832.4 1 1.65376 0.183685
70 1 -0.000114138 -1.72335e-06 0.232185 14827.8 1 1.65377 0.18369
71 1 -0.000104956 -2.04448e-06 0.228909 14823.1 1 1.65377 0.183696
72 1 -9.54557e-05 -2.35887e-06 0.225545 14818.2 1 1.65378 0.183702
73 1 -8.56495e-05 -2.66366e-06 0.222136 14813.3 1 1.65378 0.183708
74 1 -7.55527e-05 -2.95602e-06 0.218724 14808.3 1 1.65378 0.183714
75 1 -6.5183e-05 -3.23319e-06 0.215353 14803.5 1 1.65379 0.18372
76 1 -5.456e-05 -3.49247e-06 0.212068 14798.7 1 1.65379 0.183726
77 1 -4.37059e-05 -3.73131e-06 0.208911 14794.1 1 1.65379 0.183732
78 1 -3.26445e-05 -3.94726e-06 0.205924 14789.8 1 1.65379 0.183739
79 1 -2.14018e-05 -4.13807e-06 0.203147 14785.8 1 1.6538 0.183745
80 1 -1.00054e-05 -4.30164e-06 0.200617 14782.1 1 1.6538 0.183752
81 1 1.51568e-06 -4.43607e-06 0.19837 14778.8 1 1.6538 0.183758
82 1 1.31309e-05 -4.53968e-06 0.196436 14776 1 1.6538 0.183764
83 1 2.48085e-05 -4.61101e-06 0.194845 14773.7 1 1.6538 0.183771
84 1 3.65159e-05 -4.64885e-06 0.193619 14772 1 1.6538 0.183777
85 1 4.82197e-05 -4.65222e-06 0.192779 14770.7 1 1.6538 0.183784
86 1 5.98858e-05 -4.62037e-06 0.19234 14770.1 1 1.65379 0.18379
87 1 7.14796e-05 -4.55284e-06 0.192312 14770.1 1 1.65379 0.183796
88 1 8.29666e-05 -4.44937e-06 0.192701 14770.6 1 1.65379 0.183802
89 1 9.43118e-05 -4.30999e-06 0.193509 14771.8 1 1.65379 0.183808
90 1 0.000105481 -4.13496e-06 0.194731 14773.6 1 1.65378 0.183813
91 1 0.000116439 -3.92476e-06 0.196359 14775.9 1 1.65378 0.183819
92 1 0.000127153 -3.68011e-06 0.198379 14778.9 1 1.65377 0.183824
93 1 0.00013759 -3.40195e-06 0.200774 14782.3 1 1.65377 0.183829
94 1 0.000147716 -3.09142e-06 0.203521 14786.3 1 1.65376 0.183834
95 1 0.0001575 -2.74985e-06 0.206595 14790.8 1 1.65376 0.183839
96 1 0.000166913 -2.37875e-06 0.209966 14795.6 1 1.65375 0.183843
97 1 0.000175923 -1.97978e-06 0.2136 14800.9 1 1.65374 0.183847
98 1 0.000184505 -1.55475e-06 0.217464 14806.5 1 1.65373 0.183851
99 1 0.00019263 -1.1056e-06 0.221518 14812.4 1 1.65373 0.183854
100 1 0.000200273 -6.34372e-07 0.225723 14818.5 1 1.65372 0.183858
101 1 0.000207412 -1.43186e-07 0.230038 14824.7 1 1.65371 0.18386
102 1 0.000214023 3.65762e-07 0.234422 14831.1 1 1.6537 0.183863
103 1 0.000220086 8.90231e-07 0.238833 14837.5 1 1.65369 0.183865
104 1 0.000225583 1.42795e-06 0.243229 14843.8 1 1.65368 0.183867
105 1 0.000230496 1.97665e-06 0.247571 14850.1 1 1.65367 0.183869
106 1 0.000234811 2.53406e-06 0.25182 14856.3 1 1.65366 0.18387
107 1 0.000238515 3.09795e-06 0.255939 14862.3 1 1.65365 0.183871
108 1 0.000241595 3.66612e-06 0.259894 14868 1 1.65364 0.183871
109 1 0.000244043 4.23647e-06 0.263655 14873.4 1 1.65363 0.183871
110 1 0.000245851 4.80696e-06 0.267196 14878.6 1 1.65362 0.183871
111 1 0.000247012 5.37563e-06 0.270492 14883.4 1 1.65361 0.18387
112 1 0.000247524 5.94068e-06 0.273526 14887.8 1 1.6536 0.183869
113 1 0.000247383 6.50038e-06 0.276285 14891.8 1 1.65359 0.183868
114 1 0.00024659 7.05317e-06 0.278759 14895.3 1 1.65358 0.183866
115 1 0.000245147 7.5976e-06 0.280945 14898.5 1 1.65357 0.183864
116 1 0.000243056 8.13238e-06 0.282846 14901.3 1 1.65356 0.183862
117 1 0.000240322 8.65634e-06 0.284467 14903.6 1 1.65355 0.183859
118 1 0.000236953 9.16846e-06 0.285821 14905.6 1 1.65354 0.183856
119 1 0.000232957 9.66782e-06 0.286925 14907.2 1 1.65353 0.183853
120 1 0.000228344 1.01536e-05 0.287801 14908.4 1 1.65352 0.183849
121 1 0.000223126 1.06251e-05 0.288475 14909.4 1 1.65351 0.183845
122 1 0.000217317 1.10815e-05 0.288976 14910.1 1 1.6535 0.183841
123 1 0.000210931 1.15222e-05 0.289338 14910.7 1 1.65349 0.183837
124 1 0.000203988 1.19463e-05 0.289596 14911 1 1.65349 0.183832
125 1 0.000196507 1.2353e-05 0.289786 14911.3 1 1.65348 0.183827
126 1 0.000188509 1.27411e-05 0.289948 14911.6 1 1.65347 0.183821
127 1 0.00018002 1.31092e-05 0.29012 14911.8 1 1.65346 0.183816
128 1 0.000171069 1.34557e-05 0.290339 14912.1 1 1.65346 0.18381
129 1 0.000161686 1.37782e-05 0.290641 14912.6 1 1.65345 0.183804
130 1 0.000151909 1.40739e-05 0.291059 14913.2 1 1.65345 0.183798
131 1 0.000141778 1.43394e-05 0.291622 14914 1 1.65344 0.183792
132 1 0.00013134 1.45705e-05 0.292357 14915 1 1.65343 0.183786
133 1 0.000120651 1.4762e-05 0.293282 14916.4 1 1.65343 0.183779
134 1 0.00010977 1.49079e-05 0.294412 14918 1 1.65343 0.183773
135 1 9.87693e-05 1.5001e-05 0.295756 14920 1 1.65342 0.183766
136 1 8.77292e-05 1.50333e-05 0.297314 14922.2 1 1.65342 0.18376
137 1 7.6742e-05 1.49953e-05 0.299082 14924.8 1 1.65342 0.183753
138 1 6.59123e-05 1.48766e-05 0.301045 14927.6 1 1.65341 0.183747
139 1 5.53588e-05 1.4666e-05 0.303188 14930.7 1 1.65341 0.183741
140 1 4.52147e-05 1.43514e-05 0.30548 14934.1 1 1.65341 0.183736
141 1 3.56277e-05 1.39209e-05 0.3079 14937.6 1 1.65341 0.183731
142 1 2.67603e-05 1.33624e-05 0.310398 14941.2 1 1.65341 0.183726
143 1 1.8791e-05 1.26597e-05 0.312959 14944.9 1 1.65341 0.183722
144 1 1.19123e-05 1.18089e-05 0.315511 14948.6 1 1.65341 0.183718
145 1 6.30304e-06 1.08428e-05 0.318075 14952.3 1 1.65341 0.183715
146 1 2.05947e-06 9.88404e-06 0.320609 14956 1 1.65342 0.183714
147 1 -7.16263e-07 8.66503e-06 0.323418 14960.1 1 1.65342 0.183713
148 1 -1.40043e-06 6.60518e-06 0.324618 14961.8 1 1.65342 0.183713
149 1 0 0 0.324618 14961.8 1 1.65342 0.183714
0 2 0 0 0.387611 15053.1 1 1.65335 0.183706
1 2 -9.29391e-07 8.1205e-06 0.387611 15053.1 1 1.65335 0.183705
2 2 -4.07793e-06 1.51726e-05 0.386638 15051.7 1 1.65335 0.183703
3 2 -1.17505e-05 2.07721e-05 0.38509 15049.4 1 1.65335 0.183698
4 2 -2.40146e-05 2.55805e-05 0.384089 15048 1 1.65335 0.18369
5 2 -4.01972e-05 2.98162e-05 0.382689 15045.9 1 1.65335 0.18368
6 2 -5.96202e-05 3.338e-05 0.381085 15043.6 1 1.65334 0.183669
7 2 -8.17229e-05 3.62319e-05 0.37904 15040.7 1 1.65334 0.183656
8 2 -0.000105962 3.83857e-05 0.376578 15037.1 1 1.65335 0.183643
9 2 -0.000131799 3.98828e-05 0.373604 15032.8 1 1.65335 0.183629
10 2 -0.000158722 4.07729e-05 0.370125 15027.7 1 1.65335 0.183614
11 2 -0.00018626 4.11099e-05 0.366114 15021.9 1 1.65335 0.183599
12 2 -0.000213987 4.09497e-05 0.361592 15015.4 1 1.65336 0.183584
13 2 -0.000241524 4.03496e-05 0.356572 15008.1 1 1.65336 0.18357
14 2 -0.000268535 3.93665e-05 0.351095 15000.2 1 1.65337 0.183556
15 2 -0.000294732 3.80569e-05 0.345203 14991.6 1 1.65338 0.183542
16 2 -0.00031987 3.64759e-05 0.338953 14982.6 1 1.65338 0.18353
17 2 -0.000343748 3.46766e-05 0.332404 14973.1 1 1.65339 0.183518
18 2 -0.000366207 3.27095e-05 0.325624 14963.3 1 1.6534 0.183506
19 2 -0.000387127 3.0622e-05 0.31868 14953.2 1 1.65341 0.183496
20 2 -0.000406424 2.84578e-05 0.311644 14943 1 1.65342 0.183487
21 2 -0.000424047 2.62566e-05 0.304584 14932.8 1 1.65343 0.183479
22 2 -0.000439976 2.40537e-05 0.297569 14922.6 1 1.65344 0.183471
23 2 -0.000454217 2.18801e-05 0.290663 14912.6 1 1.65345 0.183465
24 2 -0.000466797 1.97619e-05 0.283928 14902.8 1 1.65346 0.183459
25 2 -0.000477764 1.7721e-05 0.277419 14893.4 1 1.65347 0.183455
26 2 -0.000487182 1.57749e-05 0.271186 14884.4 1 1.65349 0.183451
27 2 -0.000495124 1.39369e-05 0.265276 14875.8 1 1.6535 0.183448
28 2 -0.000501676 1.22167e-05 0.259726 14867.8 1 1.65351 0.183446
29 2 -0.000506926 1.06204e-05 0.25457 14860.3 1 1.65352 0.183444
30 2 -0.000510969 9.15115e-06 0.249835 14853.4 1 1.65353 0.183443
31 2 -0.0005139 7.80923e-06 0.24554 14847.2 1 1.65354 0.183443
32 2 -0.000515812 6.59276e-06 0.241702 14841.6 1 1.65355 0.183443
33 2 -0.000516798 5.49788e-06 0.238328 14836.7 1 1.65356 0.183444
34 2 -0.000516944 4.51907e-06 0.235422 14832.5 1 1.65357 0.183445
35 2 -0.000516335 3.64954e-06 0.232981 14829 1 1.65357 0.183446
36 2 -0.000515046 2.88145e-06 0.230998 14826.1 1 1.65358 0.183448
37 2 -0.000513148 2.2062e-06 0.229459 14823.9 1 1.65359 0.18345
38 2 -0.000510706 1.61461e-06 0.228347 14822.3 1 1.6536 0.183453
39 2 -0.000507775 1.09715e-06 0.22764 14821.3 1 1.65361 0.183455
40 2 -0.000504404 6.44079e-07 0.227311 14820.8 1 1.65361 0.183458
41 2 -0.000500635 2.45615e-07 0.227332 14820.8 1 1.65362 0.183461
42 2 -0.000496502 -1.07964e-07 0.227668 14821.3 1 1.65363 0.183464
43 2 -0.000492032 -4.26198e-07 0.228284 14822.2 1 1.65364 0.183467
44 2 -0.000487244 -7.18346e-07 0.22914 14823.4 1 1.65364 0.183471
45 2 -0.000482154 -9.93305e-07 0.230197 14825 1 1.65365 0.183474
46 2 -0.000476767 -1.25953e-06 0.231413 14826.7 1 1.65366 0.183478
47 2 -0.000471085 -1.52497e-06 0.232744 14828.7 1 1.65366 0.183482
48 2 -0.000465104 -1.797e-06 0.234147 14830.7 1 1.65367 0.183486
49 2 -0.000458816 -2.08237e-06 0.235581 14832.8 1 1.65367 0.18349
50 2 -0.000452208 -2.38714e-06 0.237001 14834.8 1 1.65368 0.183494
51 2 -0.000445262 -2.71669e-06 0.238369 14836.8 1 1.65369 0.183499
52 2 -0.00043796 -3.0756e-06 0.239645 14838.7 1 1.65369 0.183504
53 2 -0.000430278 -3.46769e-06 0.240792 14840.3 1 1.6537 0.183509
54 2 -0.000422193 -3.89597e-06 0.241777 14841.7 1 1.6537 0.183514
55 2 -0.000413678 -4.36263e-06 0.24257 14842.9 1 1.65371 0.183519
56 2 -0.000404708 -4.86905e-06 0.243144 14843.7 1 1.65372 0.183525
57 2 -0.000395255 -5.41577e-06 0.243477 14844.2 1 1.65372 0.183531
58 2 -0.000385294 -6.00252e-06 0.24355 14844.3 1 1.65373 0.183537
59 2 -0.000374799 -6.62827e-06 0.24335 14844 1 1.65373 0.183543
60 2 -0.000363747 -7.29121e-06 0.242866 14843.3 1 1.65374 0.18355
61 2 -0.000352116 -7.98881e-06 0.242096 14842.2 1 1.65374 0.183557
62 2 -0.000339887 -8.71787e-06 0.241039 14840.7 1 1.65375 0.183565
63 2 -0.000327044 -9.47458e-06 0.2397 14838.7 1 1.65375 0.183572
64 2 -0.000313573 -1.02545e-05 0.238089 14836.4 1 1.65376 0.183581
65 2 -0.000299466 -1.10529e-05 0.236219 14833.7 1 1.65376 0.183589
66 2 -0.000284717 -1.18642e-05 0.234109 14830.6 1 1.65377 0.183598
67 2 -0.000269323 -1.2683e-05 0.23178 14827.3 1 1.65377 0.183607
68 2 -0.00025329 -1.35031e-05 0.229257 14823.6 1 1.65378 0.183616
69 2 -0.000236622 -1.43183e-05 0.226568 14819.7 1 1.65378 0.183626
70 2 -0.000219334 -1.51224e-05 0.223746 14815.6 1 1.65379 0.183636
71 2 -0.00020144 -1.59089e-05 0.220822 14811.4 1 1.65379 0.183647
72 2 -0.000182962 -1.66714e-05 0.217832 14807 1 1.6538 0.183657
73 2 -0.000163926 -1.74034e-05 0.214813 14802.7 1 1.6538 0.183668
74 2 -0.00014436 -1.80988e-05 0.2118 14798.3 1 1.6538 0.18368
75 2 -0.0001243 -1.87516e-05 0.208833 14794 1 1.65381 0.183691
76 2 -0.000103782 -1.93558e-05 0.205947 14789.8 1 1.65381 0.183703
77 2 -8.28487e-05 -1.99059e-05 0.20318 14785.8 1 1.65381 0.183715
78 2 -6.15457e-05 -2.03969e-05 0.200568 14782 1 1.65381 0.183726
79 2 -3.99215e-05 -2.08238e-05 0.198143 14778.5 1 1.65381 0.183739
80 2 -1.80276e-05 -2.11824e-05 0.195938 14775.3 1 1.65382 0.183751
81 2 4.08155e-06 -2.14687e-05 0.193983 14772.5 1 1.65382 0.183763
82 2 2.63491e-05 -2.16791e-05 0.192305 14770.1 1 1.65382 0.183775
83 2 4.87163e-05 -2.18108e-05 0.190927 14768.1 1 1.65382 0.183788
84 2 7.11226e-05 -2.18613e-05 0.18987 14766.5 1 1.65382 0.1838
85 2 9.35059e-05 -2.18286e-05 0.189151 14765.5 1 1.65381 0.183812
86 2 0.000115803 -2.17112e-05 0.188784 14765 1 1.65381 0.183824
87 2 0.000137951 -2.15082e-05 0.188777 14764.9 1 1.65381 0.183836
88 2 0.000159885 -2.12193e-05 0.189137 14765.5 1 1.65381 0.183848
89 2 0.000181542 -2.08445e-05 0.189865 14766.5 1 1.6538 0.183859
90 2 0.000202856 -2.03843e-05 0.190958 14768.1 1 1.6538 0.183871
91 2 0.000223766 -1.98399e-05 0.192409 14770.2 1 1.6538 0.183882
92 2 0.000244207 -1.92126e-05 0.194209 14772.8 1 1.65379 0.183892
93 2 0.00026412 -1.85044e-05 0.196342 14775.9 1 1.65379 0.183903
94 2 0.000283443 -1.77177e-05 0.198791 14779.5 1 1.65378 0.183913
95 2 0.000302119 -1.68552e-05 0.201535 14783.4 1 1.65377 0.183922
96 2 0.00032009 -1.59198e-05 0.204549 14787.8 1 1.65377 0.183931
97 2 0.000337302 -1.4915e-05 0.207806 14792.5 1 1.65376 0.18394
98 2 0.000353703 -1.38444e-05 0.211277 14797.5 1 1.65375 0.183948
99 2 0.000369242 -1.27119e-05 0.214931 14802.8 1 1.65375 0.183955
100 2 0.000383872 -1.15218e-05 0.218733 14808.4 1 1.65374 0.183962
101 2 0.000397549 -1.02782e-05 0.222649 14814 1 1.65373 0.183969
102 2 0.000410229 -8.98582e-06 0.226645 14819.8 1 1.65372 0.183975
103 2 0.000421875 -7.64917e-06 0.230685 14825.7 1 1.65371 0.18398
104 2 0.000432451 -6.27299e-06 0.234733 14831.5 1 1.6537 0.183985
105 2 0.000441922 -4.8621e-06 0.238755 14837.4 1 1.6537 0.183989
106 2 0.00045026 -3.42133e-06 0.242717 14843.1 1 1.65369 0.183992
107 2 0.000457438 -1.95552e-06 0.246588 14848.7 1 1.65368 0.183995
108 2 0.000463433 -4.69489e-07 0.250338 14854.2 1 1.65367 0.183997
109 2 0.000468226 1.03198e-06 0.253939 14859.4 1 1.65366 0.183998
110 2 0.000471798 2.54418e-06 0.257367 14864.3 1 1.65365 0.183999
111 2 0.000474139 4.06251e-06 0.260601 14869 1 1.65364 0.183999
112 2 0.000475237 5.58247e-06 0.263625 14873.4 1 1.65363 0.183998
113 2 0.000475087 7.09971e-06 0.266423 14877.5 1 1.65362 0.183997
114 2 0.000473686 8.61002e-06 0.268988 14881.2 1 1.65361 0.183995
115 2 0.000471034 1.01093e-05 0.271314 14884.5 1 1.6536 0.183992
116 2 0.000467136 1.15938e-05 0.273401 14887.6 1 1.65359 0.183989
117 2 0.000461998 1.30596e-05 0.275253 14890.3 1 1.65358 0.183985
118 2 0.000455632 1.45031e-05 0.276878 14892.6 1 1.65357 0.18398
119 2 0.000448052 1.59209e-05 0.27829 14894.7 1 1.65356 0.183975
120 2 0.000439276 1.73094e-05 0.279505 14896.4 1 1.65355 0.183969
121 2 0.000429325 1.86652e-05 0.280543 14897.9 1 1.65354 0.183962
122 2 0.000418226 1.99847e-05 0.281428 14899.2 1 1.65354 0.183955
123 2 0.000406007 2.12642e-05 0.282188 14900.3 1 1.65353 0.183947
124 2 0.000392703 2.24995e-05 0.282852 14901.3 1 1.65352 0.183939
125 2 0.000378352 2.36862e-05 0.28345 14902.1 1 1.65351 0.18393
126 2 0.000362999 2.48189e-05 0.284014 14903 1 1.65351 0.18392
127 2 0.000346693 2.58918e-05 0.284576 14903.8 1 1.6535 0.18391
128 2 0.000329492 2.68977e-05 0.285168 14904.6 1 1.65349 0.1839
129 2 0.000311461 2.78283e-05 0.285819 14905.6 1 1.65349 0.183889
130 2 0.000292672 2.86737e-05 0.286557 14906.6 1 1.65348 0.183878
131 2 0.000273209 2.94224e-05 0.287406 14907.9 1 1.65348 0.183867
132 2 0.000253167 3.00608e-05 0.288387 14909.3 1 1.65347 0.183855
133 2 0.000232656 3.05729e-05 0.289517 14910.9 1 1.65347 0.183843
134 2 0.000211797 3.09405e-05 0.290806 14912.8 1 1.65346 0.183831
135 2 0.000190732 3.11428e-05 0.292261 14914.9 1 1.65346 0.183819
136 2 0.000169618 3.11561e-05 0.293878 14917.2 1 1.65346 0.183807
137 2 0.000148636 3.0954e-05 0.295655 14919.8 1 1.65345 0.183796
138 2 0.000127987 3.05075e-05 0.297575 14922.6 1 1.65345 0.183784
139 2 0.000107897 2.97855e-05 0.299624 14925.6 1 1.65345 0.183773
140 2 8.86173e-05 2.87553e-05 0.30177 14928.7 1 1.65345 0.183762
141 2 7.04241e-05 2.73838e-05 0.303997 14931.9 1 1.65345 0.183752
142 2 5.36203e-05 2.56397e-05 0.306245 14935.2 1 1.65345 0.183743
143 2 3.85221e-05 2.34966e-05 0.30852 14938.5 1 1.65345 0.183735
144 2 2.54424e-05 2.09506e-05 0.310699 14941.6 1 1.65345 0.183729
145 2 1.47051e-05 1.80349e-05 0.312877 14944.8 1 1.65345 0.183723
146 2 6.73574e-06 1.48284e-05 0.314714 14947.4 1 1.65345 0.18372
147 2 1.97805e-06 1.10787e-05 0.316944 14950.7 1 1.65345 0.183718
148 2 3.11425e-07 6.12232e-06 0.318201 14952.5 1 1.65346 0.183717
149 2 0 0 0.318201 14952.5 1 1.65346 0.183717
0 3 0 0 0.378415 15039.8 1 1.6534 0.18371
1 3 -2.90033e-06 1.06138e-05 0.378415 15039.8 1 1.6534 0.183709
2 3 -9.26526e-06 2.23736e-05 0.377647 15038.6 1 1.65339 0.183704
3 3 -2.11998e-05 3.31364e-05 0.376751 15037.3 1 1.65339 0.183696
4 3 -3.87404e-05 4.28548e-05 0.375907 15036.1 1 1.65339 0.183686
5 3 -6.13262e-05 5.12567e-05 0.374307 15033.8 1 1.65339 0.183672
6 3 -8.82647e-05 5.83242e-05 0.37258 15031.3 1 1.65339 0.183657
7 3 -0.000118832 6.40286e-05 0.370345 15028.1 1 1.65339 0.183639
8 3 -0.000152295 6.83987e-05 0.367731 15024.3 1 1.65339 0.183621
9 3 -0.00018795 7.14991e-05 0.364609 15019.7 1 1.65339 0.183601
10 3 -0.000225133 7.34205e-05 0.361017 15014.5 1 1.65339 0.183581
11 3 -0.000263226 7.42637e-05 0.356919 15008.6 1 1.6534 0.18356
12 3 -0.000301661 7.41351e-05 0.352347 15002 1 1.6534 0.183539
13 3 -0.000339927 7.31437e-05 0.347314 14994.7 1 1.65341 0.183519
14 3 -0.000377573 7.13995e-05 0.341864 14986.8 1 1.65341 0.183499
15 3 -0.000414205 6.90112e-05 0.336038 14978.3 1 1.65342 0.183479
16 3 -0.000449486 6.60853e-05 0.329895 14969.4 1 1.65343 0.183461
17 3 -0.000483138 6.27246e-05 0.323493 14960.2 1 1.65343 0.183444
18 3 -0.000514937 5.90267e-05 0.316897 14950.6 1 1.65344 0.183427
19 3 -0.000544709 5.50835e-05 0.310173 14940.9 1 1.65345 0.183412
20 3 -0.000572332 5.09795e-05 0.303388 14931 1 1.65346 0.183398
21 3 -0.000597725 4.67918e-05 0.296609 14921.2 1 1.65347 0.183386
22 3 -0.000620848 4.25888e-05 0.289898 14911.5 1 1.65348 0.183375
23 3 -0.000641698 3.84304e-05 0.283316 14901.9 1 1.65349 0.183364
24 3 -0.0006603 3.43676e-05 0.276917 14892.7 1 1.6535 0.183356
25 3 -0.000676707 3.04429e-05 0.270753 14883.7 1 1.65351 0.183348
26 3 -0.000690993 2.66902e-05 0.264868 14875.2 1 1.65352 0.183342
27 3 -0.000703249 2.31357e-05 0.2593 14867.1 1 1.65353 0.183336
28 3 -0.000713578 1.97981e-05 0.254084 14859.6 1 1.65354 0.183332
29 3 -0.000722092 1.66897e-05 0.249246 14852.6 1 1.65355 0.183329
30 3 -0.000728911 1.38165e-05 0.244808 14846.1 1 1.65356 0.183326
31 3 -0.000734154 1.11796e-05 0.240784 14840.3 1 1.65356 0.183325
32 3 -0.000737941 8.77539e-06 0.237186 14835.1 1 1.65357 0.183324
33 3 -0.000740391 6.59661e-06 0.234017 14830.5 1 1.65358 0.183324
34 3 -0.000741616 4.63285e-06 0.231278 14826.5 1 1.65359 0.183324
35 3 -0.000741725 2.87119e-06 0.228962 14823.2 1 1.6536 0.183325
36 3 -0.000740817 1.29677e-06 0.22706 14820.4 1 1.65361 0.183327
37 3 -0.000738983 -1.06739e-07 0.225558 14818.2 1 1.65362 0.183329
38 3 -0.000736308 -1.35669e-06 0.224437 14816.6 1 1.65362 0.183331
39 3 -0.000732865 -2.47108e-06 0.223676 14815.5 1 1.65363 0.183334
40 3 -0.000728718 -3.46823e-06 0.223249 14814.9 1 1.65364 0.183337
41 3 -0.000723923 -4.36646e-06 0.223127 14814.7 1 1.65365 0.183341
42 3 -0.000718525 -5.18391e-06 0.22328 14814.9 1 1.65365 0.183345
43 3 -0.000712559 -5.93827e-06 0.223675 14815.5 1 1.65366 0.183349
44 3 -0.000706054 -6.64661e-06 0.224277 14816.4 1 1.65367 0.183353
45 3 -0.000699027 -7.32523e-06 0.225048 14817.5 1 1.65367 0.183358
46 3 -0.00069149 -7.98951e-06 0.225953 14818.8 1 1.65368 0.183363
47 3 -0.000683447 -8.6538e-06 0.226952 14820.3 1 1.65369 0.183368
48 3 -0.000674893 -9.3313e-06 0.228009 14821.8 1 1.65369 0.183373
49 3 -0.000665819 -1.0034e-05 0.229086 14823.4 1 1.6537 0.183379
50 3 -0.000656211 -1.07724e-05 0.230147 14824.9 1 1.65371 0.183385
51 3 -0.000646049 -1.15559e-05 0.231156 14826.4 1 1.65371 0.183392
52 3 -0.000635309 -1.23923e-05 0.232081 14827.7 1 1.65372 0.183398
53 3 -0.000623965 -1.32878e-05 0.23289 14828.9 1 1.65372 0.183405
54 3 -0.000611988 -1.42473e-05 0.233557 14829.8 1 1.65373 0.183413