Title="LBM for phase change with fin"
dt=1 dx=1
VARIABLES="X","Y","U","V","T","H","fl","pa","Test"
ZONE T="BOX",I=150,J=150,F=POINT
0 0 0 0 0.711504 1552.24 1 1.07454 0.119392
1 0 0 0 0.718639 1553.28 1 1.07454 0.119392
2 0 0 0 0.720006 1553.48 1 1.07454 0.119392
3 0 0 0 0.721285 1553.66 1 1.07453 0.119392
4 0 0 0 0.722591 1553.85 1 1.07453 0.119392
5 0 0 0 0.72386 1554.03 1 1.07453 0.119392
6 0 0 0 0.725008 1554.2 1 1.07453 0.119392
7 0 0 0 0.725964 1554.34 1 1.07453 0.119392
8 0 0 0 0.72667 1554.44 1 1.07452 0.119392
9 0 0 0 0.727077 1554.5 1 1.07452 0.119392
10 0 0 0 0.727145 1554.51 1 1.07452 0.119392
11 0 0 0 0.726843 1554.47 1 1.07452 0.119392
12 0 0 0 0.726149 1554.37 1 1.07452 0.119392
13 0 0 0 0.725049 1554.21 1 1.07452 0.119392
14 0 0 0 0.723537 1553.99 1 1.07452 0.119392
15 0 0 0 0.721616 1553.71 1 1.07452 0.119392
16 0 0 0 0.719298 1553.37 1 1.07452 0.119392
17 0 0 0 0.716601 1552.98 1 1.07453 0.119392
18 0 0 0 0.71355 1552.54 1 1.07453 0.119392
19 0 0 0 0.710178 1552.05 1 1.07453 0.119392
20 0 0 0 0.706522 1551.52 1 1.07453 0.119392
21 0 0 0 0.702625 1550.96 1 1.07453 0.119392
22 0 0 0 0.698536 1550.37 1 1.07453 0.119393
23 0 0 0 0.694306 1549.75 1 1.07454 0.119393
24 0 0 0 0.689989 1549.13 1 1.07454 0.119393
25 0 0 0 0.685641 1548.5 1 1.07454 0.119393
26 0 0 0 0.681319 1547.87 1 1.07454 0.119393
27 0 0 0 0.67708 1547.26 1 1.07454 0.119393
28 0 0 0 0.67298 1546.66 1 1.07455 0.119394
29 0 0 0 0.669073 1546.1 1 1.07455 0.119394
30 0 0 0 0.66541 1545.56 1 1.07455 0.119394
31 0 0 0 0.662039 1545.08 1 1.07455 0.119394
32 0 0 0 0.659002 1544.64 1 1.07455 0.119394
33 0 0 0 0.656338 1544.25 1 1.07456 0.119395
34 0 0 0 0.65408 1543.92 1 1.07456 0.119395
35 0 0 0 0.652252 1543.66 1 1.07456 0.119395
36 0 0 0 0.650875 1543.46 1 1.07456 0.119395
37 0 0 0 0.649961 1543.33 1 1.07456 0.119395
38 0 0 0 0.649515 1543.26 1 1.07456 0.119396
39 0 0 0 0.649533 1543.26 1 1.07456 0.119396
40 0 0 0 0.650008 1543.33 1 1.07456 0.119396
41 0 0 0 0.650921 1543.47 1 1.07457 0.119396
42 0 0 0 0.652249 1543.66 1 1.07457 0.119396
43 0 0 0 0.653963 1543.91 1 1.07457 0.119396
44 0 0 0 0.656025 1544.2 1 1.07457 0.119396
45 0 0 0 0.658393 1544.55 1 1.07457 0.119396
46 0 0 0 0.661022 1544.93 1 1.07457 0.119396
47 0 0 0 0.663861 1545.34 1 1.07457 0.119396
48 0 0 0 0.666854 1545.77 1 1.07457 0.119396
49 0 0 0 0.669947 1546.22 1 1.07457 0.119397
50 0 0 0 0.673082 1546.68 1 1.07457 0.119397
51 0 0 0 0.676198 1547.13 1 1.07457 0.119397
52 0 0 0 0.67924 1547.57 1 1.07457 0.119397
53 0 0 0 0.682149 1547.99 1 1.07457 0.119397
54 0 0 0 0.68487 1548.38 1 1.07457 0.119397
55 0 0 0 0.687353 1548.74 1 1.07457 0.119397
56 0 0 0 0.689549 1549.06 1 1.07457 0.119397
57 0 0 0 0.691415 1549.33 1 1.07457 0.119397
58 0 0 0 0.692912 1549.55 1 1.07457 0.119397
59 0 0 0 0.69401 1549.71 1 1.07458 0.119397
60 0 0 0 0.694682 1549.81 1 1.07458 0.119397
61 0 0 0 0.69491 1549.84 1 1.07458 0.119398
62 0 0 0 0.694681 1549.81 1 1.07458 0.119398
63 0 0 0 0.693992 1549.71 1 1.07458 0.119398
64 0 0 0 0.692846 1549.54 1 1.07458 0.119398
65 0 0 0 0.691252 1549.31 1 1.07459 0.119398
66 0 0 0 0.689229 1549.02 1 1.07459 0.119398
67 0 0 0 0.686801 1548.66 1 1.07459 0.119399
68 0 0 0 0.683999 1548.26 1 1.07459 0.119399
69 0 0 0 0.68086 1547.8 1 1.07459 0.119399
70 0 0 0 0.677426 1547.31 1 1.0746 0.119399
71 0 0 0 0.673744 1546.77 1 1.0746 0.1194
72 0 0 0 0.669864 1546.21 1 1.0746 0.1194
73 0 0 0 0.665843 1545.63 1 1.0746 0.1194
74 0 0 0 0.661734 1545.03 1 1.07461 0.1194
75 0 0 0 0.657597 1544.43 1 1.07461 0.119401
76 0 0 0 0.65349 1543.84 1 1.07461 0.119401
77 0 0 0 0.64947 1543.25 1 1.07462 0.119401
78 0 0 0 0.645594 1542.69 1 1.07462 0.119401
79 0 0 0 0.641916 1542.16 1 1.07462 0.119402
80 0 0 0 0.638487 1541.66 1 1.07462 0.119402
81 0 0 0 0.635353 1541.21 1 1.07463 0.119402
82 0 0 0 0.632557 1540.8 1 1.07463 0.119403
83 0 0 0 0.630135 1540.45 1 1.07463 0.119403
84 0 0 0 0.628119 1540.16 1 1.07463 0.119403
85 0 0 0 0.626533 1539.93 1 1.07463 0.119403
86 0 0 0 0.625393 1539.77 1 1.07464 0.119403
87 0 0 0 0.624711 1539.67 1 1.07464 0.119404
88 0 0 0 0.624489 1539.63 1 1.07464 0.119404
89 0 0 0 0.624722 1539.67 1 1.07464 0.119404
90 0 0 0 0.625399 1539.77 1 1.07464 0.119404
91 0 0 0 0.626502 1539.93 1 1.07464 0.119404
92 0 0 0 0.628003 1540.14 1 1.07464 0.119404
93 0 0 0 0.629871 1540.41 1 1.07464 0.119405
94 0 0 0 0.632069 1540.73 1 1.07465 0.119405
95 0 0 0 0.634552 1541.09 1 1.07465 0.119405
96 0 0 0 0.637273 1541.49 1 1.07465 0.119405
97 0 0 0 0.64018 1541.91 1 1.07465 0.119405
98 0 0 0 0.643218 1542.35 1 1.07465 0.119405
99 0 0 0 0.646331 1542.8 1 1.07465 0.119405
100 0 0 0 0.649459 1543.25 1 1.07465 0.119405
101 0 0 0 0.652546 1543.7 1 1.07465 0.119405
102 0 0 0 0.655531 1544.13 1 1.07465 0.119405
103 0 0 0 0.658361 1544.54 1 1.07465 0.119405
104 0 0 0 0.660979 1544.92 1 1.07465 0.119405
105 0 0 0 0.663336 1545.26 1 1.07465 0.119406
106 0 0 0 0.665386 1545.56 1 1.07465 0.119406
107 0 0 0 0.667086 1545.81 1 1.07465 0.119406
108 0 0 0 0.6684 1546 1 1.07465 0.119406
109 0 0 0 0.669298 1546.13 1 1.07465 0.119406
110 0 0 0 0.669757 1546.19 1 1.07466 0.119406
111 0 0 0 0.669759 1546.2 1 1.07466 0.119406
112 0 0 0 0.669296 1546.13 1 1.07466 0.119406
113 0 0 0 0.668364 1545.99 1 1.07466 0.119406
114 0 0 0 0.66697 1545.79 1 1.07466 0.119407
115 0 0 0 0.665124 1545.52 1 1.07466 0.119407
116 0 0 0 0.662848 1545.19 1 1.07466 0.119407
117 0 0 0 0.660165 1544.8 1 1.07467 0.119407
118 0 0 0 0.65711 1544.36 1 1.07467 0.119407
119 0 0 0 0.65372 1543.87 1 1.07467 0.119407
120 0 0 0 0.650038 1543.34 1 1.07467 0.119408
121 0 0 0 0.646112 1542.77 1 1.07467 0.119408
122 0 0 0 0.641993 1542.17 1 1.07468 0.119408
123 0 0 0 0.637735 1541.55 1 1.07468 0.119408
124 0 0 0 0.633394 1540.93 1 1.07468 0.119409
125 0 0 0 0.629026 1540.29 1 1.07468 0.119409
126 0 0 0 0.624689 1539.66 1 1.07469 0.119409
127 0 0 0 0.620438 1539.05 1 1.07469 0.119409
128 0 0 0 0.616327 1538.45 1 1.07469 0.11941
129 0 0 0 0.612408 1537.88 1 1.07469 0.11941
130 0 0 0 0.608728 1537.35 1 1.0747 0.11941
131 0 0 0 0.60533 1536.86 1 1.0747 0.11941
132 0 0 0 0.602252 1536.41 1 1.0747 0.11941
133 0 0 0 0.599526 1536.02 1 1.0747 0.119411
134 0 0 0 0.597177 1535.68 1 1.0747 0.119411
135 0 0 0 0.595223 1535.39 1 1.0747 0.119411
136 0 0 0 0.593674 1535.17 1 1.07471 0.119411
137 0 0 0 0.592533 1535 1 1.07471 0.119411
138 0 0 0 0.591794 1534.9 1 1.07471 0.119411
139 0 0 0 0.591442 1534.85 1 1.07471 0.119412
140 0 0 0 0.591454 1534.85 1 1.07471 0.119412
141 0 0 0 0.591798 1534.9 1 1.07471 0.119412
142 0 0 0 0.592431 1534.99 1 1.07471 0.119412
143 0 0 0 0.593302 1535.12 1 1.07471 0.119412
144 0 0 0 0.594347 1535.27 1 1.07471 0.119412
145 0 0 0 0.595487 1535.43 1 1.07472 0.119413
146 0 0 0 0.596626 1535.6 1 1.07472 0.119413
147 0 0 0 0.597599 1535.74 1 1.07472 0.119413
148 0 0 0 0.597943 1535.79 1 1.07472 0.119413
149 0 0 0 0.591655 1534.88 1 1.07472 0.119413
0 1 0 0 0.711504 1552.24 1 1.07454 0.119392
1 1 2.90107e-06 1.41441e-05 0.711504 1552.24 1 1.07454 0.119393
2 1 3.53257e-06 1.51245e-05 0.712455 1552.38 1 1.07454 0.119393
3 1 3.6788e-06 1.56326e-05 0.713331 1552.51 1 1.07453 0.119394
4 1 3.51863e-06 1.5903e-05 0.714254 1552.64 1 1.07453 0.119394
5 1 3.18098e-06 1.60454e-05 0.715165 1552.77 1 1.07453 0.119393
6 1 2.727e-06 1.61238e-05 0.715987 1552.89 1 1.07453 0.119393
7 1 2.20494e-06 1.61653e-05 0.716655 1552.99 1 1.07453 0.119393
8 1 1.63683e-06 1.61867e-05 0.717114 1553.06 1 1.07452 0.119393
9 1 1.04251e-06 1.61935e-05 0.717319 1553.09 1 1.07452 0.119392
10 1 4.31567e-07 1.61899e-05 0.717234 1553.07 1 1.07452 0.119392
11 1 -1.86083e-07 1.61763e-05 0.716831 1553.02 1 1.07452 0.119392
12 1 -8.04689e-07 1.61536e-05 0.716087 1552.91 1 1.07452 0.119392
13 1 -1.41791e-06 1.61215e-05 0.714991 1552.75 1 1.07452 0.119391
14 1 -2.02121e-06 1.60802e-05 0.713537 1552.54 1 1.07452 0.119391
15 1 -2.60971e-06 1.60297e-05 0.711727 1552.28 1 1.07452 0.119391
16 1 -3.17942e-06 1.59703e-05 0.709571 1551.96 1 1.07452 0.119391
17 1 -3.72629e-06 1.59024e-05 0.707083 1551.6 1 1.07453 0.119391
18 1 -4.24683e-06 1.58265e-05 0.704286 1551.2 1 1.07453 0.11939
19 1 -4.73772e-06 1.57433e-05 0.701209 1550.75 1 1.07453 0.11939
20 1 -5.19613e-06 1.56537e-05 0.697884 1550.27 1 1.07453 0.11939
21 1 -5.61952e-06 1.55587e-05 0.69435 1549.76 1 1.07453 0.11939
22 1 -6.00588e-06 1.54594e-05 0.690648 1549.22 1 1.07453 0.11939
23 1 -6.35361e-06 1.5357e-05 0.686824 1548.67 1 1.07454 0.11939
24 1 -6.66164e-06 1.52527e-05 0.682925 1548.1 1 1.07454 0.119391
25 1 -6.92938e-06 1.51478e-05 0.679001 1547.53 1 1.07454 0.119391
26 1 -7.1568e-06 1.50437e-05 0.675102 1546.97 1 1.07454 0.119391
27 1 -7.34438e-06 1.49418e-05 0.671278 1546.42 1 1.07454 0.119391
28 1 -7.49313e-06 1.48432e-05 0.667578 1545.88 1 1.07455 0.119391
29 1 -7.60459e-06 1.47493e-05 0.66405 1545.37 1 1.07455 0.119391
30 1 -7.68078e-06 1.46613e-05 0.660739 1544.89 1 1.07455 0.119391
31 1 -7.72417e-06 1.45804e-05 0.657688 1544.45 1 1.07455 0.119392
32 1 -7.73767e-06 1.45075e-05 0.654933 1544.05 1 1.07455 0.119392
33 1 -7.72458e-06 1.44435e-05 0.652509 1543.7 1 1.07456 0.119392
34 1 -7.6885e-06 1.43892e-05 0.650445 1543.4 1 1.07456 0.119392
35 1 -7.63334e-06 1.43452e-05 0.648762 1543.15 1 1.07456 0.119392
36 1 -7.56319e-06 1.43119e-05 0.647478 1542.97 1 1.07456 0.119392
37 1 -7.48231e-06 1.42897e-05 0.646604 1542.84 1 1.07456 0.119393
38 1 -7.39505e-06 1.42787e-05 0.646144 1542.77 1 1.07456 0.119393
39 1 -7.30574e-06 1.42788e-05 0.646096 1542.77 1 1.07456 0.119393
40 1 -7.2187e-06 1.42897e-05 0.646451 1542.82 1 1.07456 0.119393
41 1 -7.13809e-06 1.43111e-05 0.647195 1542.93 1 1.07457 0.119393
42 1 -7.0679e-06 1.43424e-05 0.648306 1543.09 1 1.07457 0.119393
43 1 -7.01187e-06 1.43829e-05 0.649758 1543.3 1 1.07457 0.119394
44 1 -6.97342e-06 1.44317e-05 0.651518 1543.55 1 1.07457 0.119394
45 1 -6.95562e-06 1.44878e-05 0.65355 1543.85 1 1.07457 0.119394
46 1 -6.96112e-06 1.45501e-05 0.655813 1544.17 1 1.07457 0.119394
47 1 -6.99211e-06 1.46174e-05 0.65826 1544.53 1 1.07457 0.119394
48 1 -7.05031e-06 1.46884e-05 0.660846 1544.9 1 1.07457 0.119394
49 1 -7.13689e-06 1.47618e-05 0.663519 1545.29 1 1.07457 0.119394
50 1 -7.25253e-06 1.48361e-05 0.666229 1545.68 1 1.07457 0.119394
51 1 -7.39733e-06 1.49101e-05 0.668924 1546.07 1 1.07457 0.119394
52 1 -7.57087e-06 1.49823e-05 0.671553 1546.45 1 1.07457 0.119394
53 1 -7.77217e-06 1.50513e-05 0.674064 1546.82 1 1.07457 0.119394
54 1 -7.99975e-06 1.51159e-05 0.67641 1547.16 1 1.07457 0.119394
55 1 -8.25162e-06 1.51748e-05 0.678546 1547.47 1 1.07457 0.119394
56 1 -8.52532e-06 1.52268e-05 0.680428 1547.74 1 1.07457 0.119394
57 1 -8.81798e-06 1.52711e-05 0.682018 1547.97 1 1.07457 0.119394
58 1 -9.12634e-06 1.53065e-05 0.683284 1548.15 1 1.07457 0.119394
59 1 -9.44681e-06 1.53325e-05 0.684195 1548.29 1 1.07458 0.119394
60 1 -9.77555e-06 1.53483e-05 0.684731 1548.36 1 1.07458 0.119394
61 1 -1.01085e-05 1.53536e-05 0.684874 1548.39 1 1.07458 0.119394
62 1 -1.04414e-05 1.5348e-05 0.684614 1548.35 1 1.07458 0.119394
63 1 -1.07701e-05 1.53315e-05 0.683948 1548.25 1 1.07458 0.119394
64 1 -1.10902e-05 1.5304e-05 0.682877 1548.1 1 1.07458 0.119394
65 1 -1.13976e-05 1.5266e-05 0.681411 1547.88 1 1.07459 0.119394
66 1 -1.16881e-05 1.52177e-05 0.679566 1547.62 1 1.07459 0.119394
67 1 -1.19579e-05 1.51599e-05 0.677363 1547.3 1 1.07459 0.119394
68 1 -1.22034e-05 1.50931e-05 0.67483 1546.93 1 1.07459 0.119394
69 1 -1.24212e-05 1.50183e-05 0.671998 1546.52 1 1.07459 0.119395
70 1 -1.26084e-05 1.49365e-05 0.668906 1546.07 1 1.0746 0.119395
71 1 -1.27625e-05 1.48488e-05 0.665595 1545.59 1 1.0746 0.119395
72 1 -1.28815e-05 1.47564e-05 0.66211 1545.09 1 1.0746 0.119395
73 1 -1.29637e-05 1.46607e-05 0.658499 1544.56 1 1.0746 0.119395
74 1 -1.30081e-05 1.45628e-05 0.654811 1544.03 1 1.07461 0.119396
75 1 -1.30143e-05 1.44644e-05 0.651099 1543.49 1 1.07461 0.119396
76 1 -1.29822e-05 1.43666e-05 0.647412 1542.96 1 1.07461 0.119396
77 1 -1.29124e-05 1.42709e-05 0.643803 1542.43 1 1.07462 0.119397
78 1 -1.28061e-05 1.41787e-05 0.640321 1541.93 1 1.07462 0.119397
79 1 -1.26648e-05 1.40912e-05 0.637014 1541.45 1 1.07462 0.119397
80 1 -1.24907e-05 1.40096e-05 0.633927 1541 1 1.07462 0.119398
81 1 -1.22863e-05 1.3935e-05 0.631101 1540.59 1 1.07463 0.119398
82 1 -1.20547e-05 1.38685e-05 0.628573 1540.23 1 1.07463 0.119398
83 1 -1.17991e-05 1.38109e-05 0.626377 1539.91 1 1.07463 0.119399
84 1 -1.15232e-05 1.37629e-05 0.624538 1539.64 1 1.07463 0.119399
85 1 -1.1231e-05 1.37252e-05 0.623079 1539.43 1 1.07463 0.119399
86 1 -1.09266e-05 1.36981e-05 0.622016 1539.28 1 1.07464 0.1194
87 1 -1.06142e-05 1.36819e-05 0.621356 1539.18 1 1.07464 0.1194
88 1 -1.02981e-05 1.36767e-05 0.621102 1539.14 1 1.07464 0.1194
89 1 -9.98269e-06 1.36823e-05 0.621251 1539.17 1 1.07464 0.1194
90 1 -9.67209e-06 1.36984e-05 0.621792 1539.24 1 1.07464 0.119401
91 1 -9.3704e-06 1.37247e-05 0.622708 1539.38 1 1.07464 0.119401
92 1 -9.0815e-06 1.37604e-05 0.623977 1539.56 1 1.07464 0.119401
93 1 -8.80898e-06 1.38049e-05 0.62557 1539.79 1 1.07464 0.119401
94 1 -8.55612e-06 1.38572e-05 0.627454 1540.06 1 1.07465 0.119402
95 1 -8.32579e-06 1.39163e-05 0.62959 1540.37 1 1.07465 0.119402
96 1 -8.12047e-06 1.39811e-05 0.631936 1540.71 1 1.07465 0.119402
97 1 -7.94215e-06 1.40503e-05 0.634445 1541.08 1 1.07465 0.119402
98 1 -7.79234e-06 1.41226e-05 0.637071 1541.46 1 1.07465 0.119402
99 1 -7.67202e-06 1.41966e-05 0.639761 1541.85 1 1.07465 0.119402
100 1 -7.58164e-06 1.42711e-05 0.642466 1542.24 1 1.07465 0.119402
101 1 -7.52112e-06 1.43445e-05 0.645132 1542.63 1 1.07465 0.119403
102 1 -7.48981e-06 1.44156e-05 0.64771 1543 1 1.07465 0.119403
103 1 -7.48657e-06 1.44829e-05 0.650148 1543.35 1 1.07465 0.119403
104 1 -7.50971e-06 1.45453e-05 0.6524 1543.68 1 1.07465 0.119403
105 1 -7.5571e-06 1.46014e-05 0.654421 1543.97 1 1.07465 0.119403
106 1 -7.62614e-06 1.46502e-05 0.656168 1544.23 1 1.07465 0.119403
107 1 -7.71384e-06 1.46907e-05 0.657607 1544.43 1 1.07465 0.119403
108 1 -7.81683e-06 1.4722e-05 0.658704 1544.59 1 1.07465 0.119403
109 1 -7.93148e-06 1.47435e-05 0.659433 1544.7 1 1.07465 0.119403
110 1 -8.0539e-06 1.47545e-05 0.659772 1544.75 1 1.07466 0.119403
111 1 -8.18004e-06 1.47547e-05 0.659708 1544.74 1 1.07466 0.119403
112 1 -8.30573e-06 1.47438e-05 0.659231 1544.67 1 1.07466 0.119403
113 1 -8.42679e-06 1.47219e-05 0.658339 1544.54 1 1.07466 0.119403
114 1 -8.53906e-06 1.46889e-05 0.657038 1544.35 1 1.07466 0.119403
115 1 -8.63849e-06 1.46453e-05 0.655337 1544.11 1 1.07466 0.119404
116 1 -8.72121e-06 1.45915e-05 0.653254 1543.8 1 1.07466 0.119404
117 1 -8.78361e-06 1.45282e-05 0.650812 1543.45 1 1.07467 0.119404
118 1 -8.82238e-06 1.4456e-05 0.648039 1543.05 1 1.07467 0.119404
119 1 -8.83458e-06 1.4376e-05 0.644969 1542.6 1 1.07467 0.119404
120 1 -8.81771e-06 1.42892e-05 0.641639 1542.12 1 1.07467 0.119405
121 1 -8.76976e-06 1.41968e-05 0.638093 1541.61 1 1.07468 0.119405
122 1 -8.68923e-06 1.40999e-05 0.634374 1541.07 1 1.07468 0.119405
123 1 -8.57519e-06 1.39999e-05 0.630531 1540.51 1 1.07468 0.119405
124 1 -8.42733e-06 1.38982e-05 0.626612 1539.94 1 1.07468 0.119406
125 1 -8.24593e-06 1.37961e-05 0.622668 1539.37 1 1.07468 0.119406
126 1 -8.03195e-06 1.36951e-05 0.618749 1538.8 1 1.07469 0.119406
127 1 -7.78696e-06 1.35966e-05 0.614904 1538.25 1 1.07469 0.119407
128 1 -7.51323e-06 1.35018e-05 0.61118 1537.71 1 1.07469 0.119407
129 1 -7.21365e-06 1.34122e-05 0.607623 1537.19 1 1.07469 0.119407
130 1 -6.89179e-06 1.33289e-05 0.604275 1536.71 1 1.0747 0.119408
131 1 -6.55178e-06 1.3253e-05 0.601172 1536.26 1 1.0747 0.119408
132 1 -6.19847e-06 1.31856e-05 0.598349 1535.85 1 1.0747 0.119408
133 1 -5.83713e-06 1.31276e-05 0.595832 1535.48 1 1.0747 0.119409
134 1 -5.47376e-06 1.30797e-05 0.593644 1535.16 1 1.0747 0.119409
135 1 -5.11459e-06 1.30425e-05 0.5918 1534.9 1 1.0747 0.119409
136 1 -4.7666e-06 1.30165e-05 0.590309 1534.68 1 1.07471 0.119409
137 1 -4.43662e-06 1.30019e-05 0.589173 1534.52 1 1.07471 0.11941
138 1 -4.13226e-06 1.29985e-05 0.588385 1534.4 1 1.07471 0.11941
139 1 -3.86009e-06 1.30061e-05 0.587931 1534.34 1 1.07471 0.11941
140 1 -3.62748e-06 1.30233e-05 0.58779 1534.32 1 1.07471 0.11941
141 1 -3.43859e-06 1.30484e-05 0.587932 1534.34 1 1.07471 0.119411
142 1 -3.29789e-06 1.30766e-05 0.588319 1534.39 1 1.07471 0.119411
143 1 -3.20121e-06 1.31012e-05 0.588901 1534.48 1 1.07471 0.119411
144 1 -3.14204e-06 1.31058e-05 0.589619 1534.58 1 1.07471 0.119411
145 1 -3.09119e-06 1.3065e-05 0.590402 1534.7 1 1.07472 0.119411
146 1 -3.00704e-06 1.29227e-05 0.591158 1534.8 1 1.07472 0.119412
147 1 -2.78921e-06 1.25851e-05 0.591728 1534.89 1 1.07472 0.119412
148 1 -2.2922e-06 1.18553e-05 0.591655 1534.88 1 1.07472 0.119412
149 1 0 0 0.591655 1534.88 1 1.07472 0.119413
0 2 0 0 0.704505 1551.23 1 1.07459 0.119398
1 2 1.9324e-06 1.17927e-05 0.704506 1551.23 1 1.07459 0.119398
2 2 3.79372e-06 1.45665e-05 0.70486 1551.28 1 1.07459 0.119399
3 2 4.117e-06 1.55222e-05 0.705344 1551.35 1 1.07458 0.119399
4 2 4.03864e-06 1.60647e-05 0.705962 1551.44 1 1.07458 0.119399
5 2 3.68573e-06 1.63903e-05 0.706578 1551.53 1 1.07458 0.119399
6 2 3.15566e-06 1.65836e-05 0.707125 1551.61 1 1.07458 0.119399
7 2 2.49892e-06 1.67058e-05 0.707548 1551.67 1 1.07458 0.119399
8 2 1.75751e-06 1.67789e-05 0.707796 1551.71 1 1.07458 0.119398
9 2 9.54444e-07 1.68219e-05 0.707829 1551.71 1 1.07458 0.119398
10 2 1.10772e-07 1.68398e-05 0.707614 1551.68 1 1.07457 0.119398
11 2 -7.60422e-07 1.68386e-05 0.707125 1551.61 1 1.07457 0.119397
12 2 -1.64633e-06 1.68191e-05 0.706342 1551.5 1 1.07457 0.119397
13 2 -2.53769e-06 1.67834e-05 0.705255 1551.34 1 1.07457 0.119397
14 2 -3.42529e-06 1.67316e-05 0.703857 1551.14 1 1.07457 0.119396
15 2 -4.30167e-06 1.6665e-05 0.702151 1550.89 1 1.07458 0.119396
16 2 -5.15954e-06 1.65838e-05 0.700142 1550.6 1 1.07458 0.119396
17 2 -5.99266e-06 1.64893e-05 0.697846 1550.27 1 1.07458 0.119396
18 2 -6.79515e-06 1.63822e-05 0.695282 1549.89 1 1.07458 0.119395
19 2 -7.5619e-06 1.6264e-05 0.692473 1549.49 1 1.07458 0.119395
20 2 -8.28832e-06 1.61358e-05 0.689448 1549.05 1 1.07458 0.119395
21 2 -8.97054e-06 1.59992e-05 0.686242 1548.58 1 1.07458 0.119395
22 2 -9.60531e-06 1.5856e-05 0.682891 1548.1 1 1.07458 0.119395
23 2 -1.01901e-05 1.57078e-05 0.679434 1547.6 1 1.07459 0.119395
24 2 -1.07231e-05 1.55566e-05 0.675914 1547.09 1 1.07459 0.119395
25 2 -1.12032e-05 1.54044e-05 0.672374 1546.57 1 1.07459 0.119395
26 2 -1.163e-05 1.5253e-05 0.668857 1546.06 1 1.07459 0.119395
27 2 -1.2004e-05 1.51045e-05 0.665408 1545.56 1 1.07459 0.119395
28 2 -1.23262e-05 1.49608e-05 0.66207 1545.08 1 1.07459 0.119395
29 2 -1.25984e-05 1.48238e-05 0.658885 1544.62 1 1.0746 0.119395
30 2 -1.2823e-05 1.46952e-05 0.655893 1544.19 1 1.0746 0.119395
31 2 -1.30031e-05 1.45768e-05 0.653131 1543.79 1 1.0746 0.119395
32 2 -1.31424e-05 1.44699e-05 0.650631 1543.42 1 1.0746 0.119395
33 2 -1.32449e-05 1.43759e-05 0.648424 1543.1 1 1.0746 0.119395
34 2 -1.33153e-05 1.42959e-05 0.646535 1542.83 1 1.0746 0.119395
35 2 -1.33586e-05 1.42309e-05 0.644983 1542.6 1 1.07461 0.119396
36 2 -1.33799e-05 1.41814e-05 0.643784 1542.43 1 1.07461 0.119396
37 2 -1.33848e-05 1.4148e-05 0.642946 1542.31 1 1.07461 0.119396
38 2 -1.33787e-05 1.41308e-05 0.642474 1542.24 1 1.07461 0.119396
39 2 -1.33672e-05 1.41297e-05 0.642366 1542.23 1 1.07461 0.119396
40 2 -1.33559e-05 1.41444e-05 0.642614 1542.26 1 1.07461 0.119396
41 2 -1.33501e-05 1.41743e-05 0.643205 1542.35 1 1.07461 0.119396
42 2 -1.33549e-05 1.42185e-05 0.644121 1542.48 1 1.07461 0.119396
43 2 -1.33752e-05 1.42761e-05 0.645337 1542.66 1 1.07461 0.119397
44 2 -1.34153e-05 1.43458e-05 0.646825 1542.87 1 1.07461 0.119397
45 2 -1.34792e-05 1.44261e-05 0.648554 1543.12 1 1.07462 0.119397
46 2 -1.35703e-05 1.45155e-05 0.650485 1543.4 1 1.07462 0.119397
47 2 -1.36915e-05 1.46121e-05 0.652581 1543.71 1 1.07462 0.119397
48 2 -1.38449e-05 1.47141e-05 0.654798 1544.03 1 1.07462 0.119397
49 2 -1.4032e-05 1.48195e-05 0.657093 1544.36 1 1.07462 0.119397
50 2 -1.42538e-05 1.49264e-05 0.65942 1544.7 1 1.07462 0.119397
51 2 -1.45104e-05 1.50327e-05 0.661734 1545.03 1 1.07462 0.119397
52 2 -1.48012e-05 1.51364e-05 0.663991 1545.36 1 1.07462 0.119397
53 2 -1.5125e-05 1.52355e-05 0.666144 1545.67 1 1.07462 0.119397
54 2 -1.54798e-05 1.53282e-05 0.668152 1545.96 1 1.07462 0.119397
55 2 -1.58632e-05 1.54125e-05 0.669974 1546.23 1 1.07462 0.119397
56 2 -1.62718e-05 1.5487e-05 0.671572 1546.46 1 1.07462 0.119397
57 2 -1.67022e-05 1.55501e-05 0.672915 1546.65 1 1.07462 0.119397
58 2 -1.715e-05 1.56004e-05 0.67397 1546.81 1 1.07462 0.119397
59 2 -1.76106e-05 1.56369e-05 0.674714 1546.91 1 1.07463 0.119397
60 2 -1.80791e-05 1.56586e-05 0.675127 1546.97 1 1.07463 0.119396
61 2 -1.85503e-05 1.5665e-05 0.675194 1546.98 1 1.07463 0.119396
62 2 -1.90187e-05 1.56557e-05 0.674906 1546.94 1 1.07463 0.119396
63 2 -1.94789e-05 1.56304e-05 0.67426 1546.85 1 1.07463 0.119396
64 2 -1.99254e-05 1.55893e-05 0.673257 1546.7 1 1.07463 0.119396
65 2 -2.03526e-05 1.55327e-05 0.671907 1546.51 1 1.07463 0.119396
66 2 -2.07554e-05 1.54613e-05 0.670222 1546.26 1 1.07464 0.119396
67 2 -2.11288e-05 1.53759e-05 0.668222 1545.97 1 1.07464 0.119397
68 2 -2.14681e-05 1.52776e-05 0.665931 1545.64 1 1.07464 0.119397
69 2 -2.1769e-05 1.51676e-05 0.663377 1545.27 1 1.07464 0.119397
70 2 -2.20278e-05 1.50475e-05 0.660593 1544.87 1 1.07464 0.119397
71 2 -2.22413e-05 1.49188e-05 0.657617 1544.44 1 1.07465 0.119397
72 2 -2.24068e-05 1.47834e-05 0.654488 1543.98 1 1.07465 0.119397
73 2 -2.25222e-05 1.4643e-05 0.651247 1543.51 1 1.07465 0.119397
74 2 -2.25864e-05 1.44997e-05 0.647939 1543.03 1 1.07465 0.119398
75 2 -2.25985e-05 1.43555e-05 0.644609 1542.55 1 1.07466 0.119398
76 2 -2.25587e-05 1.42123e-05 0.641303 1542.07 1 1.07466 0.119398
77 2 -2.24677e-05 1.40722e-05 0.638064 1541.6 1 1.07466 0.119398
78 2 -2.2327e-05 1.39371e-05 0.634938 1541.15 1 1.07466 0.119399
79 2 -2.21386e-05 1.38089e-05 0.631966 1540.72 1 1.07467 0.119399
80 2 -2.19053e-05 1.36894e-05 0.629187 1540.32 1 1.07467 0.119399
81 2 -2.16303e-05 1.35801e-05 0.626639 1539.95 1 1.07467 0.1194
82 2 -2.13177e-05 1.34826e-05 0.624354 1539.62 1 1.07467 0.1194
83 2 -2.09716e-05 1.33981e-05 0.62236 1539.33 1 1.07468 0.1194
84 2 -2.05968e-05 1.33276e-05 0.620682 1539.08 1 1.07468 0.119401
85 2 -2.01984e-05 1.32721e-05 0.619339 1538.89 1 1.07468 0.119401
86 2 -1.97817e-05 1.3232e-05 0.618343 1538.74 1 1.07468 0.119401
87 2 -1.93522e-05 1.32078e-05 0.617703 1538.65 1 1.07468 0.119402
88 2 -1.89154e-05 1.31996e-05 0.617422 1538.61 1 1.07468 0.119402
89 2 -1.84769e-05 1.32072e-05 0.617494 1538.62 1 1.07469 0.119402
90 2 -1.80421e-05 1.32301e-05 0.617913 1538.68 1 1.07469 0.119403
91 2 -1.76163e-05 1.32678e-05 0.618662 1538.79 1 1.07469 0.119403
92 2 -1.72045e-05 1.33194e-05 0.619721 1538.94 1 1.07469 0.119403
93 2 -1.68113e-05 1.33836e-05 0.621066 1539.14 1 1.07469 0.119403
94 2 -1.64409e-05 1.34593e-05 0.622666 1539.37 1 1.07469 0.119404
95 2 -1.60971e-05 1.35449e-05 0.624489 1539.63 1 1.07469 0.119404
96 2 -1.57831e-05 1.36387e-05 0.626496 1539.93 1 1.07469 0.119404
97 2 -1.55013e-05 1.3739e-05 0.628647 1540.24 1 1.07469 0.119404
98 2 -1.52539e-05 1.38439e-05 0.6309 1540.56 1 1.07469 0.119405
99 2 -1.5042e-05 1.39514e-05 0.63321 1540.9 1 1.07469 0.119405
100 2 -1.48663e-05 1.40594e-05 0.635532 1541.24 1 1.07469 0.119405
101 2 -1.47266e-05 1.41661e-05 0.63782 1541.57 1 1.07469 0.119405
102 2 -1.46221e-05 1.42693e-05 0.640029 1541.89 1 1.0747 0.119405
103 2 -1.45514e-05 1.43672e-05 0.642115 1542.19 1 1.0747 0.119405
104 2 -1.45123e-05 1.44578e-05 0.644036 1542.47 1 1.0747 0.119405
105 2 -1.45021e-05 1.45395e-05 0.645753 1542.72 1 1.0747 0.119405
106 2 -1.45174e-05 1.46106e-05 0.647229 1542.93 1 1.0747 0.119406
107 2 -1.45544e-05 1.46698e-05 0.648432 1543.1 1 1.0747 0.119406
108 2 -1.46089e-05 1.47157e-05 0.649333 1543.23 1 1.0747 0.119406
109 2 -1.46761e-05 1.47474e-05 0.649909 1543.32 1 1.0747 0.119406
110 2 -1.4751e-05 1.4764e-05 0.650141 1543.35 1 1.0747 0.119406
111 2 -1.48286e-05 1.47651e-05 0.650017 1543.33 1 1.0747 0.119406
112 2 -1.49035e-05 1.47503e-05 0.649528 1543.26 1 1.0747 0.119406
113 2 -1.49702e-05 1.47195e-05 0.648674 1543.14 1 1.07471 0.119406
114 2 -1.50236e-05 1.4673e-05 0.647457 1542.96 1 1.07471 0.119406
115 2 -1.50585e-05 1.46113e-05 0.645887 1542.74 1 1.07471 0.119406
116 2 -1.507e-05 1.45351e-05 0.643979 1542.46 1 1.07471 0.119407
117 2 -1.50534e-05 1.44453e-05 0.641754 1542.14 1 1.07471 0.119407
118 2 -1.50046e-05 1.43432e-05 0.639236 1541.77 1 1.07471 0.119407
119 2 -1.49198e-05 1.423e-05 0.636455 1541.37 1 1.07472 0.119407
120 2 -1.47961e-05 1.41075e-05 0.633444 1540.93 1 1.07472 0.119407
121 2 -1.46308e-05 1.39773e-05 0.63024 1540.47 1 1.07472 0.119408
122 2 -1.44222e-05 1.38414e-05 0.626884 1539.98 1 1.07472 0.119408
123 2 -1.41691e-05 1.37016e-05 0.623415 1539.48 1 1.07472 0.119408
124 2 -1.38713e-05 1.35602e-05 0.619879 1538.97 1 1.07473 0.119409
125 2 -1.35292e-05 1.34192e-05 0.616319 1538.45 1 1.07473 0.119409
126 2 -1.31441e-05 1.32807e-05 0.612778 1537.94 1 1.07473 0.119409
127 2 -1.27182e-05 1.3147e-05 0.609301 1537.43 1 1.07473 0.11941
128 2 -1.22544e-05 1.302e-05 0.605928 1536.94 1 1.07473 0.11941
129 2 -1.17565e-05 1.2902e-05 0.602699 1536.48 1 1.07474 0.11941
130 2 -1.1229e-05 1.27947e-05 0.599652 1536.04 1 1.07474 0.119411
131 2 -1.06773e-05 1.27e-05 0.596818 1535.62 1 1.07474 0.119411
132 2 -1.01074e-05 1.26195e-05 0.594226 1535.25 1 1.07474 0.119411
133 2 -9.52595e-06 1.25548e-05 0.591901 1534.91 1 1.07474 0.119412
134 2 -8.94011e-06 1.25072e-05 0.589862 1534.62 1 1.07474 0.119412
135 2 -8.35771e-06 1.24776e-05 0.588122 1534.36 1 1.07475 0.119413
136 2 -7.78656e-06 1.24669e-05 0.586688 1534.16 1 1.07475 0.119413
137 2 -7.2351e-06 1.24752e-05 0.58556 1533.99 1 1.07475 0.119413
138 2 -6.71098e-06 1.25028e-05 0.584734 1533.87 1 1.07475 0.119414
139 2 -6.2223e-06 1.2548e-05 0.584196 1533.8 1 1.07475 0.119414
140 2 -5.77463e-06 1.26096e-05 0.583926 1533.76 1 1.07475 0.119414
141 2 -5.37355e-06 1.26817e-05 0.583897 1533.75 1 1.07475 0.119415
142 2 -5.018e-06 1.27585e-05 0.584075 1533.78 1 1.07475 0.119415
143 2 -4.7051e-06 1.28219e-05 0.584415 1533.83 1 1.07475 0.119415
144 2 -4.41551e-06 1.28502e-05 0.584866 1533.89 1 1.07476 0.119415
145 2 -4.12173e-06 1.27884e-05 0.585363 1533.96 1 1.07476 0.119416
146 2 -3.75534e-06 1.2561e-05 0.585826 1534.03 1 1.07476 0.119416
147 2 -3.22039e-06 1.19988e-05 0.586212 1534.09 1 1.07476 0.119416
148 2 -1.56387e-06 9.9102e-06 0.586313 1534.1 1 1.07476 0.119417
149 2 0 0 0.586313 1534.1 1 1.07476 0.119417
0 3 0 0 0.696824 1550.12 1 1.07464 0.119403
1 3 1.27948e-06 9.97323e-06 0.696825 1550.12 1 1.07464 0.119404
2 3 2.71497e-06 1.2972e-05 0.696977 1550.14 1 1.07463 0.119404
3 3 3.90937e-06 1.5243e-05 0.697282 1550.18 1 1.07463 0.119405
4 3 3.96501e-06 1.61655e-05 0.697676 1550.24 1 1.07463 0.119405
5 3 3.67556e-06 1.6741e-05 0.698061 1550.3 1 1.07463 0.119405
6 3 3.13699e-06 1.71142e-05 0.698392 1550.34 1 1.07463 0.119404
7 3 2.42568e-06 1.73597e-05 0.698617 1550.38 1 1.07463 0.119404
8 3 1.58531e-06 1.75243e-05 0.698695 1550.39 1 1.07463 0.119404
9 3 6.5324e-07 1.76307e-05 0.698589 1550.37 1 1.07463 0.119404
10 3 -3.47105e-07 1.76943e-05 0.698269 1550.33 1 1.07463 0.119403
11 3 -1.39429e-06 1.77222e-05 0.697714 1550.25 1 1.07462 0.119403
12 3 -2.47308e-06 1.77198e-05 0.696905 1550.13 1 1.07462 0.119402
13 3 -3.56904e-06 1.76896e-05 0.695831 1549.97 1 1.07462 0.119402
14 3 -4.67073e-06 1.7634e-05 0.694488 1549.78 1 1.07463 0.119402
15 3 -5.76726e-06 1.75545e-05 0.692877 1549.55 1 1.07463 0.119401
16 3 -6.84942e-06 1.74529e-05 0.691004 1549.27 1 1.07463 0.119401
17 3 -7.90858e-06 1.73306e-05 0.688881 1548.97 1 1.07463 0.119401
18 3 -8.93727e-06 1.71896e-05 0.686523 1548.62 1 1.07463 0.1194
19 3 -9.92867e-06 1.70317e-05 0.683954 1548.25 1 1.07463 0.1194
20 3 -1.08769e-05 1.6859e-05 0.681197 1547.85 1 1.07463 0.1194
21 3 -1.1777e-05 1.66738e-05 0.678283 1547.43 1 1.07463 0.1194
22 3 -1.26246e-05 1.64785e-05 0.675242 1546.99 1 1.07463 0.119399
23 3 -1.34164e-05 1.62758e-05 0.672111 1546.54 1 1.07463 0.119399
24 3 -1.415e-05 1.60684e-05 0.668926 1546.07 1 1.07464 0.119399
25 3 -1.48237e-05 1.58589e-05 0.665725 1545.61 1 1.07464 0.119399
26 3 -1.54369e-05 1.56501e-05 0.662547 1545.15 1 1.07464 0.119399
27 3 -1.59896e-05 1.54449e-05 0.65943 1544.7 1 1.07464 0.119399
28 3 -1.64829e-05 1.5246e-05 0.656412 1544.26 1 1.07464 0.119399
29 3 -1.69184e-05 1.50558e-05 0.65353 1543.84 1 1.07464 0.119399
30 3 -1.72989e-05 1.4877e-05 0.65082 1543.45 1 1.07465 0.119399
31 3 -1.76275e-05 1.47118e-05 0.648313 1543.09 1 1.07465 0.119399
32 3 -1.79083e-05 1.45623e-05 0.64604 1542.76 1 1.07465 0.119399
33 3 -1.81456e-05 1.44303e-05 0.644025 1542.47 1 1.07465 0.119399
34 3 -1.83446e-05 1.43175e-05 0.64229 1542.21 1 1.07465 0.119399
35 3 -1.85107e-05 1.42249e-05 0.640854 1542.01 1 1.07465 0.119399
36 3 -1.86497e-05 1.41537e-05 0.63973 1541.84 1 1.07465 0.119399
37 3 -1.87675e-05 1.41043e-05 0.638926 1541.73 1 1.07465 0.119399
38 3 -1.88705e-05 1.40771e-05 0.638444 1541.66 1 1.07466 0.119399
39 3 -1.89647e-05 1.40719e-05 0.638283 1541.63 1 1.07466 0.119399
40 3 -1.90563e-05 1.40883e-05 0.638437 1541.66 1 1.07466 0.119399
41 3 -1.91512e-05 1.41255e-05 0.638894 1541.72 1 1.07466 0.1194
42 3 -1.92552e-05 1.41824e-05 0.639637 1541.83 1 1.07466 0.1194
43 3 -1.93736e-05 1.42576e-05 0.640646 1541.98 1 1.07466 0.1194
44 3 -1.95113e-05 1.43493e-05 0.641895 1542.16 1 1.07466 0.1194
45 3 -1.96727e-05 1.44556e-05 0.643356 1542.37 1 1.07466 0.1194
46 3 -1.98616e-05 1.45742e-05 0.644996 1542.61 1 1.07466 0.1194
47 3 -2.00813e-05 1.47028e-05 0.646782 1542.87 1 1.07466 0.1194
48 3 -2.0334e-05 1.48388e-05 0.648674 1543.14 1 1.07466 0.1194
49 3 -2.06216e-05 1.49795e-05 0.650636 1543.42 1 1.07467 0.1194
50 3 -2.0945e-05 1.51222e-05 0.652626 1543.71 1 1.07467 0.1194
51 3 -2.13043e-05 1.52641e-05 0.654605 1544 1 1.07467 0.1194
52 3 -2.1699e-05 1.54024e-05 0.656533 1544.28 1 1.07467 0.1194
53 3 -2.21277e-05 1.55344e-05 0.658371 1544.54 1 1.07467 0.1194
54 3 -2.25882e-05 1.56576e-05 0.66008 1544.79 1 1.07467 0.1194