Title="LBM for phase change with fin"
dt=1 dx=1
VARIABLES="X","Y","U","V","T","H","fl","pa","Test"
ZONE T="BOX",I=150,J=150,F=POINT
0 0 0 0 0.463589 10722 1 1.51865 0.168739
1 0 0 0 0.470724 10729.3 1 1.51865 0.168739
2 0 0 0 0.470953 10729.5 1 1.51864 0.168738
3 0 0 0 0.470327 10728.9 1 1.51864 0.168737
4 0 0 0 0.470037 10728.6 1 1.51863 0.168737
5 0 0 0 0.469702 10728.3 1 1.51863 0.168736
6 0 0 0 0.46911 10727.6 1 1.51863 0.168736
7 0 0 0 0.468129 10726.6 1 1.51863 0.168736
8 0 0 0 0.466681 10725.2 1 1.51863 0.168735
9 0 0 0 0.464698 10723.1 1 1.51863 0.168735
10 0 0 0 0.462139 10720.5 1 1.51863 0.168736
11 0 0 0 0.458976 10717.3 1 1.51863 0.168736
12 0 0 0 0.455196 10713.4 1 1.51864 0.168736
13 0 0 0 0.450802 10708.9 1 1.51864 0.168737
14 0 0 0 0.445809 10703.8 1 1.51865 0.168737
15 0 0 0 0.440247 10698.1 1 1.51865 0.168738
16 0 0 0 0.434153 10691.8 1 1.51866 0.168739
17 0 0 0 0.427577 10685.1 1 1.51867 0.16874
18 0 0 0 0.420577 10677.9 1 1.51868 0.168741
19 0 0 0 0.413217 10670.4 1 1.51869 0.168742
20 0 0 0 0.405569 10662.5 1 1.5187 0.168743
21 0 0 0 0.397707 10654.5 1 1.51871 0.168745
22 0 0 0 0.389708 10646.3 1 1.51872 0.168746
23 0 0 0 0.381651 10638 1 1.51873 0.168748
24 0 0 0 0.373616 10629.8 1 1.51875 0.168749
25 0 0 0 0.365677 10621.7 1 1.51876 0.16875
26 0 0 0 0.357911 10613.7 1 1.51877 0.168752
27 0 0 0 0.350386 10606 1 1.51878 0.168753
28 0 0 0 0.343168 10598.6 1 1.5188 0.168755
29 0 0 0 0.336317 10591.6 1 1.51881 0.168756
30 0 0 0 0.329886 10585 1 1.51882 0.168758
31 0 0 0 0.323922 10578.9 1 1.51883 0.168759
32 0 0 0 0.318462 10573.3 1 1.51885 0.168761
33 0 0 0 0.313539 10568.2 1 1.51886 0.168762
34 0 0 0 0.309175 10563.8 1 1.51887 0.168763
35 0 0 0 0.305385 10559.9 1 1.51888 0.168765
36 0 0 0 0.302176 10556.6 1 1.51889 0.168766
37 0 0 0 0.299546 10553.9 1 1.5189 0.168767
38 0 0 0 0.297489 10551.8 1 1.51892 0.168769
39 0 0 0 0.295986 10550.2 1 1.51893 0.16877
40 0 0 0 0.295014 10549.3 1 1.51894 0.168771
41 0 0 0 0.294545 10548.8 1 1.51895 0.168772
42 0 0 0 0.294541 10548.8 1 1.51896 0.168773
43 0 0 0 0.294962 10549.2 1 1.51896 0.168774
44 0 0 0 0.295762 10550 1 1.51897 0.168775
45 0 0 0 0.29689 10551.2 1 1.51898 0.168776
46 0 0 0 0.298292 10552.6 1 1.51899 0.168777
47 0 0 0 0.299914 10554.3 1 1.519 0.168778
48 0 0 0 0.301698 10556.1 1 1.51901 0.168779
49 0 0 0 0.303584 10558 1 1.51902 0.16878
50 0 0 0 0.305516 10560 1 1.51902 0.168781
51 0 0 0 0.307436 10562 1 1.51903 0.168782
52 0 0 0 0.309287 10563.9 1 1.51904 0.168783
53 0 0 0 0.311018 10565.6 1 1.51905 0.168784
54 0 0 0 0.312578 10567.2 1 1.51905 0.168784
55 0 0 0 0.313922 10568.6 1 1.51906 0.168785
56 0 0 0 0.315007 10569.7 1 1.51907 0.168786
57 0 0 0 0.315799 10570.5 1 1.51908 0.168787
58 0 0 0 0.316266 10571 1 1.51908 0.168788
59 0 0 0 0.316384 10571.1 1 1.51909 0.168789
60 0 0 0 0.316136 10570.9 1 1.5191 0.168789
61 0 0 0 0.31551 10570.3 1 1.5191 0.16879
62 0 0 0 0.3145 10569.2 1 1.51911 0.168791
63 0 0 0 0.31311 10567.8 1 1.51912 0.168792
64 0 0 0 0.311347 10566 1 1.51912 0.168792
65 0 0 0 0.309227 10563.8 1 1.51913 0.168793
66 0 0 0 0.306771 10561.3 1 1.51914 0.168794
67 0 0 0 0.304006 10558.5 1 1.51914 0.168795
68 0 0 0 0.300964 10555.3 1 1.51915 0.168795
69 0 0 0 0.297684 10552 1 1.51915 0.168796
70 0 0 0 0.294207 10548.4 1 1.51916 0.168796
71 0 0 0 0.290578 10544.7 1 1.51916 0.168797
72 0 0 0 0.286846 10540.9 1 1.51917 0.168797
73 0 0 0 0.283062 10537 1 1.51917 0.168798
74 0 0 0 0.279278 10533.1 1 1.51918 0.168798
75 0 0 0 0.275549 10529.3 1 1.51918 0.168799
76 0 0 0 0.271926 10525.6 1 1.51918 0.168799
77 0 0 0 0.268463 10522 1 1.51919 0.168799
78 0 0 0 0.265211 10518.7 1 1.51919 0.1688
79 0 0 0 0.26222 10515.6 1 1.51919 0.1688
80 0 0 0 0.259535 10512.9 1 1.51919 0.1688
81 0 0 0 0.2572 10510.5 1 1.51919 0.1688
82 0 0 0 0.255254 10508.5 1 1.51919 0.1688
83 0 0 0 0.25373 10506.9 1 1.51919 0.1688
84 0 0 0 0.252659 10505.8 1 1.51919 0.1688
85 0 0 0 0.252065 10505.2 1 1.51919 0.168799
86 0 0 0 0.251964 10505.1 1 1.51918 0.168799
87 0 0 0 0.252371 10505.6 1 1.51918 0.168799
88 0 0 0 0.25329 10506.5 1 1.51918 0.168798
89 0 0 0 0.254722 10508 1 1.51917 0.168798
90 0 0 0 0.25666 10509.9 1 1.51917 0.168797
91 0 0 0 0.259092 10512.4 1 1.51916 0.168796
92 0 0 0 0.261999 10515.4 1 1.51915 0.168796
93 0 0 0 0.265357 10518.9 1 1.51915 0.168795
94 0 0 0 0.269137 10522.7 1 1.51914 0.168794
95 0 0 0 0.273303 10527 1 1.51913 0.168793
96 0 0 0 0.277817 10531.6 1 1.51912 0.168792
97 0 0 0 0.282636 10536.6 1 1.51911 0.168791
98 0 0 0 0.287714 10541.8 1 1.5191 0.16879
99 0 0 0 0.293 10547.2 1 1.51909 0.168789
100 0 0 0 0.298443 10552.8 1 1.51908 0.168787
101 0 0 0 0.303991 10558.4 1 1.51907 0.168786
102 0 0 0 0.309591 10564.2 1 1.51906 0.168785
103 0 0 0 0.315188 10569.9 1 1.51905 0.168784
104 0 0 0 0.32073 10575.6 1 1.51904 0.168782
105 0 0 0 0.326166 10581.2 1 1.51903 0.168781
106 0 0 0 0.331447 10586.6 1 1.51902 0.16878
107 0 0 0 0.336528 10591.8 1 1.519 0.168778
108 0 0 0 0.341366 10596.7 1 1.51899 0.168777
109 0 0 0 0.345923 10601.4 1 1.51898 0.168775
110 0 0 0 0.350167 10605.8 1 1.51897 0.168774
111 0 0 0 0.35407 10609.8 1 1.51896 0.168773
112 0 0 0 0.357609 10613.4 1 1.51894 0.168771
113 0 0 0 0.360769 10616.6 1 1.51893 0.16877
114 0 0 0 0.363541 10619.5 1 1.51892 0.168769
115 0 0 0 0.365921 10621.9 1 1.51891 0.168767
116 0 0 0 0.367913 10623.9 1 1.5189 0.168766
117 0 0 0 0.369527 10625.6 1 1.51889 0.168765
118 0 0 0 0.370779 10626.9 1 1.51888 0.168764
119 0 0 0 0.371691 10627.8 1 1.51887 0.168762
120 0 0 0 0.372292 10628.4 1 1.51886 0.168761
121 0 0 0 0.372613 10628.8 1 1.51885 0.16876
122 0 0 0 0.372693 10628.8 1 1.51884 0.168759
123 0 0 0 0.372571 10628.7 1 1.51883 0.168758
124 0 0 0 0.372293 10628.4 1 1.51882 0.168757
125 0 0 0 0.371904 10628 1 1.51882 0.168756
126 0 0 0 0.371451 10627.6 1 1.51881 0.168756
127 0 0 0 0.370982 10627.1 1 1.5188 0.168755
128 0 0 0 0.370542 10626.6 1 1.5188 0.168754
129 0 0 0 0.370176 10626.3 1 1.51879 0.168753
130 0 0 0 0.369926 10626 1 1.51878 0.168753
131 0 0 0 0.369831 10625.9 1 1.51878 0.168752
132 0 0 0 0.369922 10626 1 1.51877 0.168752
133 0 0 0 0.370228 10626.3 1 1.51877 0.168751
134 0 0 0 0.37077 10626.9 1 1.51877 0.168751
135 0 0 0 0.371564 10627.7 1 1.51876 0.168751
136 0 0 0 0.372617 10628.8 1 1.51876 0.16875
137 0 0 0 0.373928 10630.1 1 1.51876 0.16875
138 0 0 0 0.375491 10631.7 1 1.51876 0.16875
139 0 0 0 0.377291 10633.6 1 1.51876 0.16875
140 0 0 0 0.379302 10635.6 1 1.51876 0.16875
141 0 0 0 0.381499 10637.9 1 1.51876 0.16875
142 0 0 0 0.38384 10640.3 1 1.51876 0.16875
143 0 0 0 0.386292 10642.8 1 1.51876 0.168751
144 0 0 0 0.388796 10645.3 1 1.51876 0.168751
145 0 0 0 0.391335 10647.9 1 1.51876 0.168751
146 0 0 0 0.393893 10650.6 1 1.51877 0.168752
147 0 0 0 0.396667 10653.4 1 1.51877 0.168752
148 0 0 0 0.397992 10654.8 1 1.51877 0.168753
149 0 0 0 0.391704 10648.3 1 1.51877 0.168753
0 1 0 0 0.463589 10722 1 1.51865 0.168739
1 1 2.25918e-06 9.14987e-06 0.463589 10722 1 1.51865 0.16874
2 1 1.92975e-06 1.16154e-05 0.463402 10721.8 1 1.51864 0.168739
3 1 -8.57857e-07 1.30809e-05 0.462372 10720.7 1 1.51864 0.168737
4 1 -5.42891e-06 1.42736e-05 0.461699 10720.1 1 1.51863 0.168734
5 1 -1.16218e-05 1.5401e-05 0.461007 10719.3 1 1.51863 0.16873
6 1 -1.92924e-05 1.64019e-05 0.460089 10718.4 1 1.51863 0.168726
7 1 -2.82478e-05 1.72436e-05 0.458819 10717.1 1 1.51863 0.168721
8 1 -3.82778e-05 1.7919e-05 0.457124 10715.4 1 1.51863 0.168716
9 1 -4.91749e-05 1.84328e-05 0.45494 10713.1 1 1.51863 0.16871
10 1 -6.07414e-05 1.87928e-05 0.452228 10710.3 1 1.51863 0.168705
11 1 -7.27917e-05 1.90082e-05 0.448962 10707 1 1.51863 0.168699
12 1 -8.51535e-05 1.90891e-05 0.445133 10703.1 1 1.51864 0.168693
13 1 -9.76686e-05 1.9046e-05 0.440744 10698.6 1 1.51864 0.168687
14 1 -0.000110193 1.88901e-05 0.435809 10693.5 1 1.51865 0.168682
15 1 -0.000122597 1.86325e-05 0.430357 10687.9 1 1.51865 0.168676
16 1 -0.000134766 1.82846e-05 0.424425 10681.9 1 1.51866 0.168671
17 1 -0.000146598 1.78575e-05 0.418059 10675.3 1 1.51867 0.168666
18 1 -0.000158005 1.73627e-05 0.411313 10668.4 1 1.51868 0.168661
19 1 -0.000168913 1.68111e-05 0.404248 10661.2 1 1.51869 0.168657
20 1 -0.000179262 1.62135e-05 0.396931 10653.7 1 1.5187 0.168653
21 1 -0.000189001 1.55803e-05 0.389431 10646 1 1.51871 0.168649
22 1 -0.000198094 1.49214e-05 0.381819 10638.2 1 1.51872 0.168646
23 1 -0.000206513 1.42462e-05 0.374169 10630.4 1 1.51873 0.168643
24 1 -0.000214244 1.35634e-05 0.366551 10622.6 1 1.51875 0.168641
25 1 -0.000221278 1.28809e-05 0.359037 10614.9 1 1.51876 0.168638
26 1 -0.000227617 1.22059e-05 0.351693 10607.3 1 1.51877 0.168637
27 1 -0.000233268 1.15448e-05 0.344583 10600 1 1.51878 0.168635
28 1 -0.000238247 1.09031e-05 0.337765 10593.1 1 1.5188 0.168634
29 1 -0.000242572 1.02854e-05 0.331294 10586.4 1 1.51881 0.168634
30 1 -0.000246269 9.69561e-06 0.325216 10580.2 1 1.51882 0.168633
31 1 -0.000249363 9.13673e-06 0.319571 10574.4 1 1.51883 0.168633
32 1 -0.000251886 8.611e-06 0.314393 10569.1 1 1.51885 0.168633
33 1 -0.000253867 8.11994e-06 0.30971 10564.3 1 1.51886 0.168634
34 1 -0.000255341 7.66433e-06 0.305539 10560 1 1.51887 0.168634
35 1 -0.000256338 7.24437e-06 0.301894 10556.3 1 1.51888 0.168635
36 1 -0.000256891 6.85965e-06 0.298778 10553.1 1 1.51889 0.168636
37 1 -0.000257032 6.50924e-06 0.296189 10550.5 1 1.5189 0.168637
38 1 -0.00025679 6.19177e-06 0.294118 10548.3 1 1.51892 0.168639
39 1 -0.000256192 5.90546e-06 0.292548 10546.7 1 1.51893 0.16864
40 1 -0.000255266 5.6482e-06 0.291458 10545.6 1 1.51894 0.168642
41 1 -0.000254034 5.41759e-06 0.290819 10545 1 1.51895 0.168644
42 1 -0.000252517 5.21101e-06 0.290598 10544.7 1 1.51896 0.168645
43 1 -0.000250735 5.02568e-06 0.290757 10544.9 1 1.51896 0.168647
44 1 -0.000248703 4.85868e-06 0.291255 10545.4 1 1.51897 0.168649
45 1 -0.000246434 4.70704e-06 0.292046 10546.2 1 1.51898 0.168652
46 1 -0.000243938 4.56775e-06 0.293082 10547.3 1 1.51899 0.168654
47 1 -0.000241224 4.43783e-06 0.294314 10548.5 1 1.519 0.168656
48 1 -0.000238297 4.31435e-06 0.295689 10549.9 1 1.51901 0.168659
49 1 -0.00023516 4.1945e-06 0.297156 10551.4 1 1.51902 0.168661
50 1 -0.000231813 4.07558e-06 0.298663 10553 1 1.51902 0.168664
51 1 -0.000228256 3.95506e-06 0.300161 10554.5 1 1.51903 0.168666
52 1 -0.000224485 3.83062e-06 0.3016 10556 1 1.51904 0.168669
53 1 -0.000220497 3.70017e-06 0.302933 10557.4 1 1.51905 0.168672
54 1 -0.000216284 3.56183e-06 0.304118 10558.6 1 1.51905 0.168675
55 1 -0.000211841 3.41403e-06 0.305114 10559.6 1 1.51906 0.168678
56 1 -0.00020716 3.25546e-06 0.305886 10560.4 1 1.51907 0.168681
57 1 -0.000202232 3.08512e-06 0.306402 10560.9 1 1.51908 0.168685
58 1 -0.00019705 2.90228e-06 0.306637 10561.2 1 1.51908 0.168688
59 1 -0.000191603 2.70657e-06 0.306569 10561.1 1 1.51909 0.168692
60 1 -0.000185885 2.49789e-06 0.306185 10560.7 1 1.5191 0.168695
61 1 -0.000179888 2.27647e-06 0.305474 10560 1 1.5191 0.168699
62 1 -0.000173604 2.04282e-06 0.304433 10558.9 1 1.51911 0.168703
63 1 -0.000167028 1.79776e-06 0.303065 10557.5 1 1.51912 0.168707
64 1 -0.000160154 1.54238e-06 0.301378 10555.8 1 1.51912 0.168711
65 1 -0.00015298 1.27801e-06 0.299386 10553.7 1 1.51913 0.168716
66 1 -0.000145503 1.00624e-06 0.297107 10551.4 1 1.51914 0.16872
67 1 -0.000137723 7.28887e-07 0.294567 10548.8 1 1.51914 0.168725
68 1 -0.000129642 4.47935e-07 0.291794 10546 1 1.51915 0.16873
69 1 -0.000121262 1.65555e-07 0.288822 10542.9 1 1.51915 0.168734
70 1 -0.000112591 -1.15948e-07 0.285687 10539.7 1 1.51916 0.168739
71 1 -0.000103635 -3.94151e-07 0.282429 10536.4 1 1.51916 0.168744
72 1 -9.44035e-05 -6.6655e-07 0.279091 10532.9 1 1.51917 0.16875
73 1 -8.49091e-05 -9.30582e-07 0.275718 10529.5 1 1.51917 0.168755
74 1 -7.51655e-05 -1.18366e-06 0.272355 10526 1 1.51918 0.16876
75 1 -6.51887e-05 -1.4232e-06 0.269049 10522.6 1 1.51918 0.168766
76 1 -5.49969e-05 -1.64664e-06 0.265847 10519.4 1 1.51918 0.168771
77 1 -4.46101e-05 -1.8515e-06 0.262795 10516.2 1 1.51919 0.168777
78 1 -3.40504e-05 -2.03536e-06 0.259937 10513.3 1 1.51919 0.168782
79 1 -2.33414e-05 -2.19593e-06 0.257317 10510.6 1 1.51919 0.168788
80 1 -1.25088e-05 -2.33105e-06 0.254974 10508.2 1 1.51919 0.168794
81 1 -1.57961e-06 -2.43872e-06 0.252947 10506.1 1 1.51919 0.168799
82 1 9.4177e-06 -2.51713e-06 0.251269 10504.4 1 1.51919 0.168805
83 1 2.04533e-05 -2.56465e-06 0.249971 10503.1 1 1.51919 0.16881
84 1 3.14962e-05 -2.57988e-06 0.249078 10502.2 1 1.51919 0.168816
85 1 4.25144e-05 -2.56166e-06 0.248611 10501.7 1 1.51919 0.168821
86 1 5.34753e-05 -2.50906e-06 0.248586 10501.7 1 1.51918 0.168826
87 1 6.43454e-05 -2.42139e-06 0.249015 10502.1 1 1.51918 0.168831
88 1 7.50909e-05 -2.29825e-06 0.249903 10503 1 1.51918 0.168836
89 1 8.56775e-05 -2.13948e-06 0.25125 10504.4 1 1.51917 0.168841
90 1 9.60712e-05 -1.94517e-06 0.253052 10506.3 1 1.51917 0.168846
91 1 0.000106238 -1.71571e-06 0.255298 10508.6 1 1.51916 0.16885
92 1 0.000116143 -1.45172e-06 0.257973 10511.3 1 1.51915 0.168854
93 1 0.000125754 -1.15407e-06 0.261056 10514.5 1 1.51915 0.168859
94 1 0.000135038 -8.23891e-07 0.264521 10518 1 1.51914 0.168862
95 1 0.000143962 -4.62541e-07 0.268341 10521.9 1 1.51913 0.168866
96 1 0.000152497 -7.15987e-08 0.272479 10526.2 1 1.51912 0.168869
97 1 0.000160611 3.47148e-07 0.276901 10530.7 1 1.51911 0.168872
98 1 0.000168278 7.91718e-07 0.281566 10535.5 1 1.5191 0.168875
99 1 0.000175469 1.25995e-06 0.28643 10540.5 1 1.51909 0.168878
100 1 0.00018216 1.74954e-06 0.291449 10545.6 1 1.51908 0.16888
101 1 0.000188327 2.25803e-06 0.296578 10550.9 1 1.51907 0.168882
102 1 0.00019395 2.78286e-06 0.301769 10556.2 1 1.51906 0.168883
103 1 0.000199008 3.32136e-06 0.306975 10561.5 1 1.51905 0.168884
104 1 0.000203485 3.87081e-06 0.31215 10566.8 1 1.51904 0.168885
105 1 0.000207366 4.42843e-06 0.31725 10572 1 1.51903 0.168886
106 1 0.000210639 4.99143e-06 0.322229 10577.1 1 1.51902 0.168886
107 1 0.000213294 5.55702e-06 0.327049 10582.1 1 1.519 0.168886
108 1 0.000215323 6.12245e-06 0.331669 10586.8 1 1.51899 0.168886
109 1 0.000216723 6.68501e-06 0.336057 10591.3 1 1.51898 0.168885
110 1 0.000217491 7.2421e-06 0.340182 10595.5 1 1.51897 0.168884
111 1 0.000217627 7.7912e-06 0.344018 10599.5 1 1.51896 0.168883
112 1 0.000217136 8.32994e-06 0.347544 10603.1 1 1.51894 0.168881
113 1 0.000216022 8.85611e-06 0.350744 10606.4 1 1.51893 0.168879
114 1 0.000214294 9.36765e-06 0.353609 10609.3 1 1.51892 0.168877
115 1 0.000211963 9.8627e-06 0.356134 10611.9 1 1.51891 0.168875
116 1 0.000209042 1.03396e-05 0.358319 10614.1 1 1.5189 0.168872
117 1 0.000205546 1.07969e-05 0.360173 10616 1 1.51889 0.168869
118 1 0.000201493 1.12333e-05 0.361707 10617.6 1 1.51888 0.168866
119 1 0.000196902 1.16479e-05 0.362939 10618.9 1 1.51887 0.168862
120 1 0.000191794 1.20397e-05 0.363892 10619.8 1 1.51886 0.168858
121 1 0.000186194 1.24081e-05 0.364593 10620.5 1 1.51885 0.168854
122 1 0.000180125 1.27526e-05 0.365073 10621 1 1.51884 0.16885
123 1 0.000173615 1.30728e-05 0.365367 10621.3 1 1.51883 0.168846
124 1 0.000166691 1.33683e-05 0.365511 10621.5 1 1.51882 0.168842
125 1 0.000159384 1.36389e-05 0.365546 10621.5 1 1.51882 0.168837
126 1 0.000151725 1.38842e-05 0.365511 10621.5 1 1.51881 0.168832
127 1 0.000143747 1.41039e-05 0.365447 10621.4 1 1.5188 0.168828
128 1 0.000135486 1.42974e-05 0.365395 10621.4 1 1.5188 0.168823
129 1 0.000126978 1.4464e-05 0.365391 10621.4 1 1.51879 0.168818
130 1 0.000118262 1.46025e-05 0.365473 10621.4 1 1.51878 0.168813
131 1 0.000109383 1.47116e-05 0.365672 10621.7 1 1.51878 0.168808
132 1 0.000100384 1.47893e-05 0.366018 10622 1 1.51877 0.168803
133 1 9.13148e-05 1.48333e-05 0.366533 10622.5 1 1.51877 0.168798
134 1 8.22298e-05 1.48404e-05 0.367237 10623.3 1 1.51877 0.168793
135 1 7.3187e-05 1.48071e-05 0.368141 10624.2 1 1.51876 0.168788
136 1 6.42507e-05 1.47291e-05 0.369252 10625.3 1 1.51876 0.168783
137 1 5.54915e-05 1.46012e-05 0.370568 10626.7 1 1.51876 0.168778
138 1 4.69872e-05 1.44178e-05 0.372082 10628.2 1 1.51876 0.168774
139 1 3.88233e-05 1.41726e-05 0.373779 10630 1 1.51876 0.16877
140 1 3.10934e-05 1.3859e-05 0.375638 10631.9 1 1.51876 0.168766
141 1 2.38993e-05 1.34704e-05 0.377633 10633.9 1 1.51876 0.168762
142 1 1.73502e-05 1.30007e-05 0.379726 10636.1 1 1.51876 0.168759
143 1 1.15614e-05 1.24455e-05 0.38189 10638.3 1 1.51876 0.168757
144 1 6.64907e-06 1.18094e-05 0.384069 10640.5 1 1.51876 0.168754
145 1 2.71441e-06 1.11165e-05 0.38625 10642.7 1 1.51876 0.168753
146 1 -1.78358e-07 1.04098e-05 0.388425 10645 1 1.51877 0.168752
147 1 -1.93261e-06 9.48479e-06 0.390796 10647.4 1 1.51877 0.168751
148 1 -1.96624e-06 7.65485e-06 0.391704 10648.3 1 1.51877 0.168752
149 1 0 0 0.391704 10648.3 1 1.51877 0.168753
0 2 0 0 0.45578 10714 1 1.51869 0.168743
1 2 2.15337e-07 7.94376e-06 0.45578 10714 1 1.51869 0.168743
2 2 -1.0265e-06 1.38696e-05 0.455082 10713.3 1 1.51869 0.168742
3 2 -5.88723e-06 1.82729e-05 0.453936 10712.1 1 1.51869 0.168739
4 2 -1.43606e-05 2.20525e-05 0.453298 10711.4 1 1.51868 0.168734
5 2 -2.59867e-05 2.54449e-05 0.452348 10710.5 1 1.51868 0.168728
6 2 -4.03299e-05 2.84231e-05 0.451211 10709.3 1 1.51868 0.16872
7 2 -5.70156e-05 3.09516e-05 0.4497 10707.8 1 1.51868 0.168711
8 2 -7.5678e-05 3.30217e-05 0.447802 10705.8 1 1.51868 0.168702
9 2 -9.5954e-05 3.46449e-05 0.44544 10703.4 1 1.51868 0.168691
10 2 -0.000117491 3.58425e-05 0.442595 10700.5 1 1.51868 0.168681
11 2 -0.000139956 3.6641e-05 0.439237 10697 1 1.51868 0.168669
12 2 -0.000163036 3.70694e-05 0.435363 10693.1 1 1.51869 0.168658
13 2 -0.000186443 3.71581e-05 0.430975 10688.6 1 1.51869 0.168647
14 2 -0.000209915 3.69379e-05 0.426092 10683.6 1 1.5187 0.168635
15 2 -0.000233212 3.64403e-05 0.420738 10678.1 1 1.5187 0.168624
16 2 -0.000256122 3.56964e-05 0.41495 10672.1 1 1.51871 0.168614
17 2 -0.000278455 3.47372e-05 0.408773 10665.8 1 1.51872 0.168603
18 2 -0.000300049 3.3593e-05 0.402257 10659.1 1 1.51872 0.168593
19 2 -0.000320763 3.22937e-05 0.395462 10652.2 1 1.51873 0.168584
20 2 -0.000340481 3.08677e-05 0.388447 10645 1 1.51874 0.168575
21 2 -0.000359109 2.93427e-05 0.381278 10637.6 1 1.51875 0.168567
22 2 -0.000376573 2.77446e-05 0.374022 10630.2 1 1.51876 0.168559
23 2 -0.000392819 2.60975e-05 0.366746 10622.8 1 1.51877 0.168553
24 2 -0.000407813 2.44239e-05 0.359514 10615.3 1 1.51879 0.168546
25 2 -0.000421535 2.27441e-05 0.352392 10608 1 1.5188 0.168541
26 2 -0.000433983 2.10763e-05 0.34544 10600.9 1 1.51881 0.168536
27 2 -0.000445165 1.94365e-05 0.338716 10594 1 1.51882 0.168532
28 2 -0.000455102 1.78383e-05 0.332271 10587.4 1 1.51883 0.168528
29 2 -0.000463826 1.62934e-05 0.326154 10581.2 1 1.51884 0.168525
30 2 -0.000471374 1.4811e-05 0.320405 10575.3 1 1.51886 0.168523
31 2 -0.000477793 1.33984e-05 0.315059 10569.8 1 1.51887 0.168521
32 2 -0.00048313 1.20608e-05 0.310147 10564.8 1 1.51888 0.16852
33 2 -0.00048744 1.08017e-05 0.305689 10560.2 1 1.51889 0.168519
34 2 -0.000490778 9.62273e-06 0.301701 10556.1 1 1.5189 0.168518
35 2 -0.000493198 8.5241e-06 0.298192 10552.5 1 1.51891 0.168519
36 2 -0.000494756 7.50459e-06 0.295165 10549.4 1 1.51892 0.168519
37 2 -0.000495507 6.56176e-06 0.292615 10546.8 1 1.51893 0.16852
38 2 -0.000495501 5.69213e-06 0.290532 10544.7 1 1.51895 0.168521
39 2 -0.000494787 4.89134e-06 0.2889 10543 1 1.51896 0.168523
40 2 -0.000493411 4.15431e-06 0.287699 10541.8 1 1.51897 0.168525
41 2 -0.000491415 3.47535e-06 0.286902 10540.9 1 1.51897 0.168527
42 2 -0.000488835 2.84838e-06 0.286477 10540.5 1 1.51898 0.168529
43 2 -0.000485704 2.26697e-06 0.286391 10540.4 1 1.51899 0.168532
44 2 -0.000482052 1.72453e-06 0.286606 10540.6 1 1.519 0.168535
45 2 -0.000477901 1.21442e-06 0.28708 10541.1 1 1.51901 0.168538
46 2 -0.000473272 7.30025e-07 0.287772 10541.8 1 1.51902 0.168541
47 2 -0.000468178 2.64862e-07 0.288635 10542.7 1 1.51903 0.168545
48 2 -0.00046263 -1.87313e-07 0.289625 10543.7 1 1.51904 0.168548
49 2 -0.000456635 -6.32435e-07 0.290697 10544.8 1 1.51904 0.168552
50 2 -0.000450197 -1.07606e-06 0.291804 10546 1 1.51905 0.168557
51 2 -0.000443313 -1.52331e-06 0.292904 10547.1 1 1.51906 0.168561
52 2 -0.000435981 -1.97878e-06 0.293953 10548.2 1 1.51907 0.168566
53 2 -0.000428195 -2.44654e-06 0.294911 10549.1 1 1.51908 0.16857
54 2 -0.000419946 -2.93006e-06 0.295742 10550 1 1.51908 0.168575
55 2 -0.000411225 -3.43218e-06 0.296409 10550.7 1 1.51909 0.168581
56 2 -0.00040202 -3.9551e-06 0.296884 10551.2 1 1.5191 0.168586
57 2 -0.000392318 -4.50037e-06 0.29714 10551.4 1 1.5191 0.168592
58 2 -0.000382108 -5.06886e-06 0.297155 10551.4 1 1.51911 0.168598
59 2 -0.000371378 -5.66077e-06 0.296911 10551.2 1 1.51912 0.168604
60 2 -0.000360114 -6.27564e-06 0.296398 10550.7 1 1.51913 0.168611
61 2 -0.000348307 -6.91239e-06 0.295606 10549.9 1 1.51913 0.168617
62 2 -0.000335947 -7.56929e-06 0.294535 10548.8 1 1.51914 0.168624
63 2 -0.000323027 -8.24404e-06 0.293188 10547.4 1 1.51915 0.168632
64 2 -0.000309539 -8.93379e-06 0.291571 10545.7 1 1.51915 0.168639
65 2 -0.000295483 -9.63517e-06 0.289699 10543.8 1 1.51916 0.168647
66 2 -0.000280856 -1.03444e-05 0.287587 10541.6 1 1.51916 0.168655
67 2 -0.000265663 -1.10571e-05 0.285259 10539.3 1 1.51917 0.168664
68 2 -0.000249907 -1.17688e-05 0.282739 10536.7 1 1.51917 0.168672
69 2 -0.0002336 -1.24746e-05 0.280057 10533.9 1 1.51918 0.168681
70 2 -0.000216753 -1.31693e-05 0.277244 10531 1 1.51918 0.16869
71 2 -0.000199383 -1.38476e-05 0.274336 10528.1 1 1.51919 0.1687
72 2 -0.000181511 -1.4504e-05 0.27137 10525 1 1.51919 0.168709
73 2 -0.000163159 -1.5133e-05 0.268385 10522 1 1.5192 0.168719
74 2 -0.000144356 -1.5729e-05 0.265419 10518.9 1 1.5192 0.168729
75 2 -0.000125133 -1.62866e-05 0.262514 10515.9 1 1.5192 0.168739
76 2 -0.000105524 -1.68004e-05 0.259709 10513.1 1 1.51921 0.168749
77 2 -8.55684e-05 -1.7265e-05 0.257044 10510.3 1 1.51921 0.168759
78 2 -6.53073e-05 -1.76755e-05 0.254558 10507.8 1 1.51921 0.16877
79 2 -4.47854e-05 -1.80271e-05 0.252288 10505.5 1 1.51921 0.16878
80 2 -2.40507e-05 -1.83153e-05 0.250268 10503.4 1 1.51921 0.168791
81 2 -3.15359e-06 -1.8536e-05 0.248532 10501.6 1 1.51921 0.168802
82 2 1.78529e-05 -1.86853e-05 0.247107 10500.2 1 1.51921 0.168812
83 2 3.89136e-05 -1.876e-05 0.246021 10499 1 1.51921 0.168823
84 2 5.9971e-05 -1.87571e-05 0.245296 10498.3 1 1.51921 0.168833
85 2 8.09664e-05 -1.86741e-05 0.244949 10497.9 1 1.51921 0.168844
86 2 0.000101839 -1.85091e-05 0.244996 10498 1 1.5192 0.168854
87 2 0.000122528 -1.82606e-05 0.245446 10498.5 1 1.5192 0.168864
88 2 0.000142971 -1.79277e-05 0.246304 10499.3 1 1.5192 0.168874
89 2 0.000163104 -1.751e-05 0.247572 10500.6 1 1.51919 0.168884
90 2 0.000182865 -1.70075e-05 0.249245 10502.4 1 1.51919 0.168893
91 2 0.000202192 -1.64208e-05 0.251315 10504.5 1 1.51918 0.168902
92 2 0.000221021 -1.57513e-05 0.253771 10507 1 1.51918 0.168911
93 2 0.000239291 -1.50004e-05 0.256593 10509.9 1 1.51917 0.168919
94 2 0.000256943 -1.41704e-05 0.259763 10513.1 1 1.51916 0.168927
95 2 0.000273917 -1.32639e-05 0.263254 10516.7 1 1.51915 0.168935
96 2 0.000290155 -1.22841e-05 0.267039 10520.6 1 1.51915 0.168942
97 2 0.000305604 -1.12346e-05 0.271086 10524.7 1 1.51914 0.168949
98 2 0.00032021 -1.01194e-05 0.275361 10529.1 1 1.51913 0.168956
99 2 0.000333923 -8.94287e-06 0.279827 10533.7 1 1.51912 0.168961
100 2 0.000346696 -7.70986e-06 0.284447 10538.4 1 1.51911 0.168967
101 2 0.000358486 -6.42548e-06 0.289181 10543.3 1 1.5191 0.168971
102 2 0.000369253 -5.0952e-06 0.293987 10548.2 1 1.51909 0.168976
103 2 0.000378959 -3.72473e-06 0.298826 10553.2 1 1.51908 0.168979
104 2 0.000387572 -2.32001e-06 0.303657 10558.1 1 1.51907 0.168982
105 2 0.000395065 -8.872e-07 0.30844 10563 1 1.51906 0.168985
106 2 0.000401412 5.67436e-07 0.313138 10567.8 1 1.51905 0.168987
107 2 0.000406594 2.03752e-06 0.317713 10572.5 1 1.51904 0.168988
108 2 0.000410597 3.51663e-06 0.322131 10577 1 1.51902 0.168989
109 2 0.000413409 4.99835e-06 0.326362 10581.4 1 1.51901 0.168989
110 2 0.000415026 6.47632e-06 0.330378 10585.5 1 1.519 0.168988
111 2 0.000415446 7.94429e-06 0.334154 10589.4 1 1.51899 0.168987
112 2 0.000414674 9.39616e-06 0.337671 10593 1 1.51898 0.168985
113 2 0.000412719 1.08261e-05 0.340914 10596.3 1 1.51897 0.168983
114 2 0.000409593 1.22283e-05 0.343871 10599.3 1 1.51896 0.16898
115 2 0.000405315 1.35976e-05 0.346537 10602 1 1.51895 0.168976
116 2 0.000399908 1.49289e-05 0.34891 10604.5 1 1.51894 0.168972
117 2 0.000393398 1.62174e-05 0.350995 10606.6 1 1.51893 0.168968
118 2 0.000385817 1.74589e-05 0.3528 10608.5 1 1.51892 0.168963
119 2 0.0003772 1.86493e-05 0.354339 10610 1 1.51891 0.168957
120 2 0.000367585 1.97849e-05 0.35563 10611.4 1 1.5189 0.168951
121 2 0.000357017 2.08624e-05 0.356693 10612.5 1 1.51889 0.168945
122 2 0.000345541 2.18786e-05 0.357556 10613.3 1 1.51888 0.168938
123 2 0.000333207 2.28306e-05 0.358246 10614 1 1.51887 0.168931
124 2 0.000320069 2.37156e-05 0.358794 10614.6 1 1.51886 0.168923
125 2 0.000306183 2.45306e-05 0.359233 10615.1 1 1.51886 0.168915
126 2 0.000291612 2.52728e-05 0.359598 10615.4 1 1.51885 0.168907
127 2 0.000276418 2.59388e-05 0.359921 10615.8 1 1.51884 0.168899
128 2 0.000260672 2.6525e-05 0.360238 10616.1 1 1.51884 0.16889
129 2 0.000244446 2.70272e-05 0.36058 10616.4 1 1.51883 0.168881
130 2 0.000227817 2.74404e-05 0.360979 10616.8 1 1.51882 0.168872
131 2 0.000210871 2.77586e-05 0.361461 10617.3 1 1.51882 0.168863
132 2 0.000193698 2.79747e-05 0.36205 10617.9 1 1.51882 0.168854
133 2 0.000176394 2.80806e-05 0.362767 10618.7 1 1.51881 0.168844
134 2 0.000159065 2.80664e-05 0.363627 10619.6 1 1.51881 0.168835
135 2 0.000141827 2.79209e-05 0.36464 10620.6 1 1.51881 0.168826
136 2 0.000124805 2.7631e-05 0.365809 10621.8 1 1.5188 0.168817
137 2 0.000108135 2.71823e-05 0.367133 10623.2 1 1.5188 0.168809
138 2 9.19659e-05 2.65586e-05 0.368603 10624.7 1 1.5188 0.168801
139 2 7.64609e-05 2.57428e-05 0.370208 10626.3 1 1.5188 0.168793
140 2 6.17954e-05 2.4717e-05 0.371924 10628.1 1 1.5188 0.168785
141 2 4.81587e-05 2.3464e-05 0.373731 10629.9 1 1.5188 0.168779
142 2 3.57516e-05 2.19693e-05 0.375585 10631.8 1 1.5188 0.168773
143 2 2.47812e-05 2.02251e-05 0.377473 10633.7 1 1.5188 0.168767
144 2 1.54563e-05 1.82376e-05 0.379307 10635.6 1 1.5188 0.168763
145 2 7.99657e-06 1.60289e-05 0.381127 10637.5 1 1.5188 0.168759
146 2 2.68636e-06 1.35986e-05 0.382668 10639.1 1 1.51881 0.168757
147 2 -1.40908e-07 1.06782e-05 0.384531 10641 1 1.51881 0.168756
148 2 -4.86257e-07 6.36669e-06 0.385523 10642 1 1.51881 0.168756
149 2 0 0 0.385523 10642 1 1.51881 0.168757
0 3 0 0 0.446893 10704.9 1 1.51874 0.168748
1 3 -1.38432e-06 8.81067e-06 0.446893 10704.9 1 1.51874 0.168748
2 3 -5.11463e-06 1.81772e-05 0.446327 10704.3 1 1.51873 0.168745
3 3 -1.30239e-05 2.66299e-05 0.445691 10703.6 1 1.51873 0.168741
4 3 -2.53249e-05 3.4305e-05 0.445139 10703.1 1 1.51873 0.168734
5 3 -4.17285e-05 4.11357e-05 0.443967 10701.9 1 1.51873 0.168725
6 3 -6.1792e-05 4.71106e-05 0.442682 10700.6 1 1.51873 0.168714
7 3 -8.50322e-05 5.22003e-05 0.44098 10698.8 1 1.51873 0.168702
8 3 -0.000110961 5.64033e-05 0.438926 10696.7 1 1.51873 0.168689
9 3 -0.000139101 5.97408e-05 0.436422 10694.2 1 1.51873 0.168674
10 3 -0.000168991 6.22516e-05 0.433468 10691.1 1 1.51873 0.168659
11 3 -0.000200189 6.39847e-05 0.430033 10687.6 1 1.51873 0.168643
12 3 -0.000232281 6.49947e-05 0.42612 10683.6 1 1.51873 0.168627
13 3 -0.00026488 6.53393e-05 0.421731 10679.1 1 1.51874 0.168611
14 3 -0.000297631 6.50781e-05 0.416886 10674.1 1 1.51874 0.168595
15 3 -0.00033021 6.42712e-05 0.41161 10668.7 1 1.51875 0.16858
16 3 -0.000362325 6.29789e-05 0.405939 10662.9 1 1.51875 0.168564
17 3 -0.000393719 6.12611e-05 0.399916 10656.7 1 1.51876 0.168549
18 3 -0.000424164 5.91765e-05 0.393591 10650.3 1 1.51877 0.168535
19 3 -0.000453466 5.67824e-05 0.387019 10643.5 1 1.51878 0.168521
20 3 -0.00048146 5.41341e-05 0.380257 10636.6 1 1.51879 0.168508
21 3 -0.000508012 5.12844e-05 0.373368 10629.5 1 1.51879 0.168496
22 3 -0.000533014 4.82832e-05 0.366413 10622.4 1 1.5188 0.168484
23 3 -0.000556387 4.51772e-05 0.359454 10615.3 1 1.51881 0.168474
24 3 -0.000578074 4.20092e-05 0.352552 10608.2 1 1.51882 0.168464
25 3 -0.000598042 3.88181e-05 0.345766 10601.3 1 1.51884 0.168455
26 3 -0.000616277 3.56389e-05 0.339152 10594.5 1 1.51885 0.168447
27 3 -0.000632783 3.2502e-05 0.33276 10587.9 1 1.51886 0.16844
28 3 -0.000647581 2.94339e-05 0.326638 10581.7 1 1.51887 0.168434
29 3 -0.000660704 2.64564e-05 0.320828 10575.7 1 1.51888 0.168429
30 3 -0.000672196 2.35876e-05 0.315365 10570.1 1 1.51889 0.168425
31 3 -0.00068211 2.08413e-05 0.310281 10564.9 1 1.5189 0.168421
32 3 -0.000690505 1.82276e-05 0.3056 10560.1 1 1.51891 0.168418
33 3 -0.000697448 1.57534e-05 0.301339 10555.7 1 1.51892 0.168416
34 3 -0.000703005 1.34219e-05 0.297511 10551.8 1 1.51893 0.168414
35 3 -0.000707246 1.12339e-05 0.294122 10548.3 1 1.51894 0.168414
36 3 -0.00071024 9.18719e-06 0.291172 10545.3 1 1.51895 0.168413
37 3 -0.000712055 7.27762e-06 0.288656 10542.7 1 1.51896 0.168414
38 3 -0.000712756 5.49895e-06 0.286563 10540.6 1 1.51897 0.168415
39 3 -0.000712406 3.84336e-06 0.284876 10538.9 1 1.51898 0.168416
40 3 -0.000711063 2.30171e-06 0.283576 10537.5 1 1.51899 0.168418
41 3 -0.00070878 8.63832e-07 0.282638 10536.6 1 1.519 0.16842
42 3 -0.000705607 -4.81222e-07 0.282032 10535.9 1 1.51901 0.168423
43 3 -0.000701585 -1.7449e-06 0.281728 10535.6 1 1.51902 0.168426
44 3 -0.000696752 -2.93893e-06 0.281691 10535.6 1 1.51903 0.168429
45 3 -0.000691141 -4.07512e-06 0.281883 10535.8 1 1.51904 0.168433
46 3 -0.000684777 -5.16513e-06 0.282267 10536.2 1 1.51905 0.168437
47 3 -0.000677681 -6.22031e-06 0.282803 10536.7 1 1.51906 0.168442
48 3 -0.000669869 -7.25156e-06 0.283451 10537.4 1 1.51906 0.168447
49 3 -0.00066135 -8.26917e-06 0.28417 10538.1 1 1.51907 0.168452
50 3 -0.000652132 -9.28266e-06 0.284921 10538.9 1 1.51908 0.168458
51 3 -0.000642215 -1.03007e-05 0.285666 10539.7 1 1.51909 0.168464
52 3 -0.000631599 -1.13311e-05 0.286368 10540.4 1 1.5191 0.16847
53 3 -0.000620277 -1.23806e-05 0.286992 10541 1 1.5191 0.168477
54 3 -0.000608244 -1.34547e-05 0.287506 10541.6 1 1.51911 0.168484
55 3 -0.000595489 -1.45581e-05 0.28788 10541.9 1 1.51912 0.168491