Title="LBM for phase change with fin"
dt=1 dx=1
VARIABLES="X","Y","U","V","T","H","fl","pa","Test"
ZONE T="BOX",I=150,J=150,F=POINT
0 0 0 0 0.414187 13498.3 1 1.60432 0.178258
1 0 0 0 0.421321 13507.6 1 1.60432 0.178258
2 0 0 0 0.421349 13507.6 1 1.60431 0.178257
3 0 0 0 0.420405 13506.4 1 1.60431 0.178256
4 0 0 0 0.419831 13505.6 1 1.60431 0.178255
5 0 0 0 0.419184 13504.8 1 1.60431 0.178255
6 0 0 0 0.41827 13503.6 1 1.6043 0.178255
7 0 0 0 0.416935 13501.9 1 1.6043 0.178254
8 0 0 0 0.415112 13499.5 1 1.6043 0.178254
9 0 0 0 0.412728 13496.4 1 1.60431 0.178254
10 0 0 0 0.409751 13492.6 1 1.60431 0.178255
11 0 0 0 0.406156 13487.9 1 1.60431 0.178255
12 0 0 0 0.401944 13482.5 1 1.60432 0.178256
13 0 0 0 0.397125 13476.2 1 1.60432 0.178256
14 0 0 0 0.391728 13469.2 1 1.60433 0.178257
15 0 0 0 0.385791 13461.5 1 1.60434 0.178258
16 0 0 0 0.379368 13453.2 1 1.60434 0.178259
17 0 0 0 0.372516 13444.3 1 1.60435 0.17826
18 0 0 0 0.365304 13435 1 1.60436 0.178261
19 0 0 0 0.357805 13425.2 1 1.60437 0.178263
20 0 0 0 0.350096 13415.3 1 1.60438 0.178264
21 0 0 0 0.342257 13405.1 1 1.6044 0.178265
22 0 0 0 0.334366 13394.9 1 1.60441 0.178267
23 0 0 0 0.326503 13384.7 1 1.60442 0.178268
24 0 0 0 0.318744 13374.6 1 1.60443 0.17827
25 0 0 0 0.311162 13364.8 1 1.60444 0.178271
26 0 0 0 0.303825 13355.3 1 1.60446 0.178273
27 0 0 0 0.296796 13346.2 1 1.60447 0.178274
28 0 0 0 0.290133 13337.5 1 1.60448 0.178275
29 0 0 0 0.283888 13329.4 1 1.60449 0.178277
30 0 0 0 0.278103 13321.9 1 1.6045 0.178278
31 0 0 0 0.272815 13315.1 1 1.60451 0.178279
32 0 0 0 0.268055 13308.9 1 1.60453 0.178281
33 0 0 0 0.263844 13303.5 1 1.60454 0.178282
34 0 0 0 0.260197 13298.7 1 1.60455 0.178283
35 0 0 0 0.257122 13294.7 1 1.60456 0.178284
36 0 0 0 0.254617 13291.5 1 1.60457 0.178286
37 0 0 0 0.252675 13289 1 1.60458 0.178287
38 0 0 0 0.251283 13287.2 1 1.60458 0.178288
39 0 0 0 0.250419 13286.1 1 1.60459 0.178289
40 0 0 0 0.250057 13285.6 1 1.6046 0.17829
41 0 0 0 0.250163 13285.7 1 1.60461 0.178291
42 0 0 0 0.250699 13286.4 1 1.60462 0.178291
43 0 0 0 0.251623 13287.6 1 1.60463 0.178292
44 0 0 0 0.252888 13289.3 1 1.60463 0.178293
45 0 0 0 0.254443 13291.3 1 1.60464 0.178294
46 0 0 0 0.256235 13293.6 1 1.60465 0.178295
47 0 0 0 0.258209 13296.2 1 1.60465 0.178296
48 0 0 0 0.260309 13298.9 1 1.60466 0.178296
49 0 0 0 0.262478 13301.7 1 1.60467 0.178297
50 0 0 0 0.26466 13304.5 1 1.60467 0.178298
51 0 0 0 0.266799 13307.3 1 1.60468 0.178298
52 0 0 0 0.268842 13309.9 1 1.60469 0.178299
53 0 0 0 0.270739 13312.4 1 1.60469 0.1783
54 0 0 0 0.272441 13314.6 1 1.6047 0.178301
55 0 0 0 0.273906 13316.5 1 1.6047 0.178301
56 0 0 0 0.275094 13318 1 1.60471 0.178302
57 0 0 0 0.275972 13319.2 1 1.60472 0.178303
58 0 0 0 0.276511 13319.9 1 1.60472 0.178303
59 0 0 0 0.27669 13320.1 1 1.60473 0.178304
60 0 0 0 0.276492 13319.9 1 1.60474 0.178305
61 0 0 0 0.275907 13319.1 1 1.60474 0.178306
62 0 0 0 0.274932 13317.8 1 1.60475 0.178306
63 0 0 0 0.27357 13316.1 1 1.60475 0.178307
64 0 0 0 0.27183 13313.8 1 1.60476 0.178308
65 0 0 0 0.269729 13311.1 1 1.60476 0.178308
66 0 0 0 0.267288 13307.9 1 1.60477 0.178309
67 0 0 0 0.264533 13304.4 1 1.60477 0.17831
68 0 0 0 0.261497 13300.4 1 1.60478 0.17831
69 0 0 0 0.258217 13296.2 1 1.60479 0.178311
70 0 0 0 0.254734 13291.7 1 1.60479 0.178311
71 0 0 0 0.251092 13286.9 1 1.60479 0.178312
72 0 0 0 0.247338 13282.1 1 1.6048 0.178312
73 0 0 0 0.243522 13277.1 1 1.6048 0.178313
74 0 0 0 0.239695 13272.2 1 1.60481 0.178313
75 0 0 0 0.235907 13267.3 1 1.60481 0.178314
76 0 0 0 0.23221 13262.5 1 1.60481 0.178314
77 0 0 0 0.228656 13257.9 1 1.60482 0.178314
78 0 0 0 0.225293 13253.5 1 1.60482 0.178315
79 0 0 0 0.22217 13249.4 1 1.60482 0.178315
80 0 0 0 0.219329 13245.8 1 1.60482 0.178315
81 0 0 0 0.216814 13242.5 1 1.60482 0.178315
82 0 0 0 0.214661 13239.7 1 1.60482 0.178315
83 0 0 0 0.212903 13237.4 1 1.60482 0.178315
84 0 0 0 0.21157 13235.7 1 1.60482 0.178315
85 0 0 0 0.210683 13234.6 1 1.60482 0.178315
86 0 0 0 0.210262 13234 1 1.60482 0.178314
87 0 0 0 0.210319 13234.1 1 1.60481 0.178314
88 0 0 0 0.210858 13234.8 1 1.60481 0.178314
89 0 0 0 0.211883 13236.1 1 1.60481 0.178313
90 0 0 0 0.213386 13238.1 1 1.6048 0.178313
91 0 0 0 0.215358 13240.6 1 1.6048 0.178312
92 0 0 0 0.21778 13243.8 1 1.60479 0.178311
93 0 0 0 0.220632 13247.5 1 1.60478 0.178311
94 0 0 0 0.223886 13251.7 1 1.60478 0.17831
95 0 0 0 0.227511 13256.4 1 1.60477 0.178309
96 0 0 0 0.231469 13261.5 1 1.60476 0.178308
97 0 0 0 0.235722 13267 1 1.60476 0.178307
98 0 0 0 0.240226 13272.8 1 1.60475 0.178306
99 0 0 0 0.244935 13279 1 1.60474 0.178305
100 0 0 0 0.249802 13285.3 1 1.60473 0.178304
101 0 0 0 0.254778 13291.7 1 1.60472 0.178303
102 0 0 0 0.259813 13298.2 1 1.60471 0.178302
103 0 0 0 0.264857 13304.8 1 1.6047 0.178301
104 0 0 0 0.269861 13311.3 1 1.60469 0.178299
105 0 0 0 0.274778 13317.6 1 1.60468 0.178298
106 0 0 0 0.279562 13323.8 1 1.60467 0.178297
107 0 0 0 0.28417 13329.8 1 1.60466 0.178295
108 0 0 0 0.288564 13335.5 1 1.60465 0.178294
109 0 0 0 0.292708 13340.9 1 1.60464 0.178293
110 0 0 0 0.296571 13345.9 1 1.60463 0.178292
111 0 0 0 0.300128 13350.5 1 1.60461 0.17829
112 0 0 0 0.303358 13354.7 1 1.6046 0.178289
113 0 0 0 0.306246 13358.4 1 1.60459 0.178288
114 0 0 0 0.308784 13361.7 1 1.60458 0.178286
115 0 0 0 0.31097 13364.5 1 1.60457 0.178285
116 0 0 0 0.312806 13366.9 1 1.60456 0.178284
117 0 0 0 0.314303 13368.9 1 1.60455 0.178283
118 0 0 0 0.315476 13370.4 1 1.60454 0.178282
119 0 0 0 0.316346 13371.5 1 1.60453 0.17828
120 0 0 0 0.316942 13372.3 1 1.60452 0.178279
121 0 0 0 0.317293 13372.7 1 1.60451 0.178278
122 0 0 0 0.317436 13372.9 1 1.6045 0.178277
123 0 0 0 0.31741 13372.9 1 1.6045 0.178276
124 0 0 0 0.317258 13372.7 1 1.60449 0.178275
125 0 0 0 0.317023 13372.4 1 1.60448 0.178274
126 0 0 0 0.316751 13372 1 1.60447 0.178273
127 0 0 0 0.316487 13371.7 1 1.60447 0.178273
128 0 0 0 0.316276 13371.4 1 1.60446 0.178272
129 0 0 0 0.31616 13371.3 1 1.60445 0.178271
130 0 0 0 0.316177 13371.3 1 1.60445 0.17827
131 0 0 0 0.316365 13371.5 1 1.60444 0.17827
132 0 0 0 0.316753 13372 1 1.60444 0.178269
133 0 0 0 0.317367 13372.8 1 1.60443 0.178269
134 0 0 0 0.318225 13373.9 1 1.60443 0.178268
135 0 0 0 0.31934 13375.4 1 1.60443 0.178268
136 0 0 0 0.320715 13377.2 1 1.60442 0.178268
137 0 0 0 0.322349 13379.3 1 1.60442 0.178267
138 0 0 0 0.324229 13381.7 1 1.60442 0.178267
139 0 0 0 0.326341 13384.5 1 1.60442 0.178267
140 0 0 0 0.328654 13387.5 1 1.60442 0.178267
141 0 0 0 0.331143 13390.7 1 1.60442 0.178267
142 0 0 0 0.333761 13394.1 1 1.60442 0.178267
143 0 0 0 0.336483 13397.6 1 1.60442 0.178268
144 0 0 0 0.33924 13401.2 1 1.60442 0.178268
145 0 0 0 0.342037 13404.8 1 1.60442 0.178268
146 0 0 0 0.344837 13408.4 1 1.60442 0.178269
147 0 0 0 0.347907 13412.4 1 1.60442 0.178269
148 0 0 0 0.349427 13414.4 1 1.60443 0.17827
149 0 0 0 0.343139 13406.2 1 1.60443 0.17827
0 1 0 0 0.414187 13498.3 1 1.60432 0.178258
1 1 1.7748e-06 8.43874e-06 0.414187 13498.3 1 1.60432 0.178259
2 1 8.22811e-07 1.11658e-05 0.413797 13497.8 1 1.60431 0.178257
3 1 -2.9524e-06 1.29112e-05 0.41245 13496.1 1 1.60431 0.178254
4 1 -8.80664e-06 1.43276e-05 0.411493 13494.8 1 1.60431 0.178251
5 1 -1.65481e-05 1.56745e-05 0.410489 13493.5 1 1.60431 0.178246
6 1 -2.59852e-05 1.68345e-05 0.409249 13491.9 1 1.6043 0.178241
7 1 -3.68465e-05 1.77684e-05 0.407625 13489.8 1 1.6043 0.178235
8 1 -4.88451e-05 1.84767e-05 0.405556 13487.1 1 1.6043 0.178228
9 1 -6.17091e-05 1.89744e-05 0.40297 13483.8 1 1.60431 0.178221
10 1 -7.51856e-05 1.92756e-05 0.399839 13479.7 1 1.60431 0.178214
11 1 -8.90417e-05 1.93953e-05 0.396143 13474.9 1 1.60431 0.178207
12 1 -0.000103065 1.93494e-05 0.391881 13469.4 1 1.60432 0.1782
13 1 -0.000117064 1.91545e-05 0.387067 13463.2 1 1.60432 0.178194
14 1 -0.000130869 1.88276e-05 0.381728 13456.3 1 1.60433 0.178187
15 1 -0.000144333 1.83854e-05 0.375902 13448.7 1 1.60434 0.178181
16 1 -0.000157326 1.78448e-05 0.369639 13440.6 1 1.60434 0.178175
17 1 -0.000169742 1.72221e-05 0.362997 13432 1 1.60435 0.178169
18 1 -0.000181494 1.65333e-05 0.35604 13423 1 1.60436 0.178164
19 1 -0.000192511 1.57937e-05 0.348836 13413.6 1 1.60437 0.17816
20 1 -0.000202744 1.50178e-05 0.341459 13404.1 1 1.60438 0.178155
21 1 -0.000212156 1.42191e-05 0.333981 13394.4 1 1.6044 0.178152
22 1 -0.000220727 1.34099e-05 0.326478 13384.6 1 1.60441 0.178149
23 1 -0.000228451 1.26015e-05 0.319021 13375 1 1.60442 0.178146
24 1 -0.000235333 1.18038e-05 0.31168 13365.5 1 1.60443 0.178144
25 1 -0.000241388 1.10254e-05 0.304521 13356.2 1 1.60444 0.178142
26 1 -0.00024664 1.02737e-05 0.297607 13347.2 1 1.60446 0.178141
27 1 -0.000251119 9.55457e-06 0.290993 13338.7 1 1.60447 0.17814
28 1 -0.000254863 8.87293e-06 0.284731 13330.5 1 1.60448 0.178139
29 1 -0.000257913 8.2324e-06 0.278864 13322.9 1 1.60449 0.178139
30 1 -0.000260311 7.63552e-06 0.273432 13315.9 1 1.6045 0.178139
31 1 -0.000262104 7.08383e-06 0.268464 13309.5 1 1.60451 0.178139
32 1 -0.000263337 6.57799e-06 0.263986 13303.6 1 1.60453 0.17814
33 1 -0.000264055 6.11784e-06 0.260015 13298.5 1 1.60454 0.178141
34 1 -0.000264305 5.70253e-06 0.256562 13294 1 1.60455 0.178142
35 1 -0.000264127 5.3306e-06 0.253631 13290.2 1 1.60456 0.178143
36 1 -0.000263564 5.00005e-06 0.251219 13287.1 1 1.60457 0.178145
37 1 -0.000262652 4.70847e-06 0.249318 13284.6 1 1.60458 0.178146
38 1 -0.000261426 4.45308e-06 0.247912 13282.8 1 1.60458 0.178148
39 1 -0.000259918 4.23081e-06 0.246982 13281.6 1 1.60459 0.17815
40 1 -0.000258156 4.03838e-06 0.2465 13281 1 1.6046 0.178152
41 1 -0.000256164 3.87234e-06 0.246437 13280.9 1 1.60461 0.178154
42 1 -0.000253961 3.72913e-06 0.246756 13281.3 1 1.60462 0.178156
43 1 -0.000251567 3.60517e-06 0.247418 13282.2 1 1.60463 0.178158
44 1 -0.000248993 3.49682e-06 0.248381 13283.4 1 1.60463 0.17816
45 1 -0.000246249 3.40053e-06 0.249599 13285 1 1.60464 0.178162
46 1 -0.000243344 3.31278e-06 0.251025 13286.8 1 1.60465 0.178165
47 1 -0.000240279 3.2302e-06 0.252608 13288.9 1 1.60465 0.178167
48 1 -0.000237056 3.14954e-06 0.2543 13291.1 1 1.60466 0.17817
49 1 -0.000233673 3.06776e-06 0.256049 13293.4 1 1.60467 0.178172
50 1 -0.000230126 2.982e-06 0.257807 13295.6 1 1.60467 0.178175
51 1 -0.000226407 2.88967e-06 0.259524 13297.9 1 1.60468 0.178177
52 1 -0.00022251 2.78843e-06 0.261155 13300 1 1.60469 0.17818
53 1 -0.000218422 2.67621e-06 0.262654 13301.9 1 1.60469 0.178183
54 1 -0.000214135 2.55128e-06 0.263981 13303.6 1 1.6047 0.178186
55 1 -0.000209635 2.41219e-06 0.265098 13305.1 1 1.6047 0.178189
56 1 -0.00020491 2.25785e-06 0.265972 13306.2 1 1.60471 0.178192
57 1 -0.000199946 2.08748e-06 0.266575 13307 1 1.60472 0.178196
58 1 -0.000194731 1.90066e-06 0.266882 13307.4 1 1.60472 0.178199
59 1 -0.000189253 1.69729e-06 0.266875 13307.4 1 1.60473 0.178203
60 1 -0.000183498 1.47763e-06 0.266541 13307 1 1.60474 0.178207
61 1 -0.000177456 1.24225e-06 0.265871 13306.1 1 1.60474 0.178211
62 1 -0.000171117 9.92024e-07 0.264865 13304.8 1 1.60475 0.178215
63 1 -0.000164471 7.28138e-07 0.263525 13303 1 1.60475 0.178219
64 1 -0.000157512 4.5205e-07 0.261861 13300.9 1 1.60476 0.178223
65 1 -0.000150234 1.65476e-07 0.259888 13298.3 1 1.60476 0.178228
66 1 -0.000142633 -1.29641e-07 0.257624 13295.4 1 1.60477 0.178233
67 1 -0.000134707 -4.3115e-07 0.255094 13292.1 1 1.60478 0.178238
68 1 -0.000126458 -7.36727e-07 0.252327 13288.5 1 1.60478 0.178243
69 1 -0.000117889 -1.0439e-06 0.249355 13284.7 1 1.60479 0.178248
70 1 -0.000109004 -1.35009e-06 0.246214 13280.6 1 1.60479 0.178253
71 1 -9.98115e-05 -1.65263e-06 0.242943 13276.4 1 1.60479 0.178259
72 1 -9.03211e-05 -1.94879e-06 0.239583 13272 1 1.6048 0.178264
73 1 -8.05451e-05 -2.23584e-06 0.236178 13267.6 1 1.6048 0.17827
74 1 -7.04984e-05 -2.51105e-06 0.232771 13263.2 1 1.60481 0.178276
75 1 -6.01978e-05 -2.77172e-06 0.229408 13258.8 1 1.60481 0.178282
76 1 -4.96624e-05 -3.01524e-06 0.226132 13254.6 1 1.60481 0.178288
77 1 -3.89135e-05 -3.23909e-06 0.222988 13250.5 1 1.60482 0.178294
78 1 -2.79741e-05 -3.44084e-06 0.22002 13246.7 1 1.60482 0.1783
79 1 -1.68694e-05 -3.61824e-06 0.217267 13243.1 1 1.60482 0.178306
80 1 -5.62593e-06 -3.76919e-06 0.214769 13239.9 1 1.60482 0.178312
81 1 5.72796e-06 -3.89176e-06 0.212561 13237 1 1.60482 0.178318
82 1 1.71627e-05 -3.98424e-06 0.210677 13234.5 1 1.60482 0.178324
83 1 2.86473e-05 -4.04513e-06 0.209144 13232.6 1 1.60482 0.17833
84 1 4.01501e-05 -4.07313e-06 0.207988 13231.1 1 1.60482 0.178336
85 1 5.16382e-05 -4.0672e-06 0.20723 13230.1 1 1.60482 0.178342
86 1 6.30783e-05 -4.02655e-06 0.206884 13229.6 1 1.60482 0.178348
87 1 7.44364e-05 -3.95059e-06 0.206963 13229.7 1 1.60481 0.178354
88 1 8.56782e-05 -3.83902e-06 0.207471 13230.4 1 1.60481 0.178359
89 1 9.67695e-05 -3.69178e-06 0.208411 13231.6 1 1.60481 0.178365
90 1 0.000107676 -3.50903e-06 0.209778 13233.4 1 1.6048 0.17837
91 1 0.000118363 -3.29121e-06 0.211564 13235.7 1 1.6048 0.178375
92 1 0.000128798 -3.03895e-06 0.213754 13238.5 1 1.60479 0.17838
93 1 0.000138947 -2.75314e-06 0.216331 13241.9 1 1.60478 0.178385
94 1 0.000148777 -2.43486e-06 0.219271 13245.7 1 1.60478 0.178389
95 1 0.000158257 -2.08541e-06 0.222548 13249.9 1 1.60477 0.178394
96 1 0.000167356 -1.70628e-06 0.226131 13254.6 1 1.60476 0.178398
97 1 0.000176044 -1.29913e-06 0.229987 13259.6 1 1.60476 0.178401
98 1 0.000184295 -8.65767e-07 0.234078 13264.9 1 1.60475 0.178405
99 1 0.000192079 -4.08166e-07 0.238365 13270.4 1 1.60474 0.178408
100 1 0.000199372 7.15898e-08 0.242808 13276.2 1 1.60473 0.178411
101 1 0.000206151 5.71306e-07 0.247365 13282.1 1 1.60472 0.178413
102 1 0.000212392 1.0887e-06 0.251991 13288.1 1 1.60471 0.178415
103 1 0.000218076 1.62143e-06 0.256644 13294.1 1 1.6047 0.178417
104 1 0.000223183 2.16709e-06 0.261282 13300.1 1 1.60469 0.178419
105 1 0.000227698 2.72326e-06 0.265862 13306.1 1 1.60468 0.17842
106 1 0.000231606 3.28751e-06 0.270344 13311.9 1 1.60467 0.178421
107 1 0.000234893 3.85742e-06 0.274691 13317.5 1 1.60466 0.178421
108 1 0.000237551 4.43061e-06 0.278868 13322.9 1 1.60465 0.178421
109 1 0.00023957 5.00474e-06 0.282842 13328.1 1 1.60464 0.178421
110 1 0.000240943 5.57755e-06 0.286586 13332.9 1 1.60463 0.17842
111 1 0.000241668 6.14688e-06 0.290076 13337.5 1 1.60461 0.17842
112 1 0.000241742 6.71066e-06 0.293292 13341.6 1 1.6046 0.178418
113 1 0.000241165 7.26695e-06 0.296221 13345.4 1 1.60459 0.178417
114 1 0.00023994 7.81393e-06 0.298852 13348.8 1 1.60458 0.178415
115 1 0.000238071 8.34994e-06 0.301182 13351.9 1 1.60457 0.178413
116 1 0.000235565 8.87346e-06 0.303212 13354.5 1 1.60456 0.17841
117 1 0.00023243 9.38312e-06 0.304949 13356.7 1 1.60455 0.178407
118 1 0.000228677 9.87772e-06 0.306404 13358.6 1 1.60454 0.178404
119 1 0.000224318 1.03562e-05 0.307595 13360.2 1 1.60453 0.1784
120 1 0.000219368 1.08175e-05 0.308542 13361.4 1 1.60452 0.178397
121 1 0.000213844 1.12609e-05 0.309273 13362.3 1 1.60451 0.178393
122 1 0.000207763 1.16856e-05 0.309816 13363 1 1.6045 0.178388
123 1 0.000201145 1.20908e-05 0.310205 13363.6 1 1.6045 0.178384
124 1 0.000194014 1.24759e-05 0.310476 13363.9 1 1.60449 0.178379
125 1 0.000186393 1.28399e-05 0.310665 13364.1 1 1.60448 0.178374
126 1 0.000178308 1.31819e-05 0.310811 13364.3 1 1.60447 0.178369
127 1 0.00016979 1.35009e-05 0.310953 13364.5 1 1.60447 0.178363
128 1 0.000160871 1.37953e-05 0.311129 13364.8 1 1.60446 0.178358
129 1 0.000151584 1.40633e-05 0.311375 13365.1 1 1.60445 0.178352
130 1 0.00014197 1.43028e-05 0.311724 13365.5 1 1.60445 0.178346
131 1 0.000132073 1.45109e-05 0.312206 13366.1 1 1.60444 0.17834
132 1 0.000121939 1.46842e-05 0.312849 13367 1 1.60444 0.178334
133 1 0.000111624 1.48185e-05 0.313672 13368 1 1.60443 0.178328
134 1 0.000101187 1.49088e-05 0.314691 13369.4 1 1.60443 0.178322
135 1 9.06979e-05 1.49494e-05 0.315917 13371 1 1.60443 0.178316
136 1 8.02321e-05 1.49335e-05 0.31735 13372.8 1 1.60442 0.178311
137 1 6.9876e-05 1.48533e-05 0.318989 13374.9 1 1.60442 0.178305
138 1 5.97264e-05 1.47001e-05 0.32082 13377.3 1 1.60442 0.178299
139 1 4.98914e-05 1.44647e-05 0.322829 13379.9 1 1.60442 0.178294
140 1 4.04915e-05 1.4137e-05 0.324989 13382.7 1 1.60442 0.178289
141 1 3.16591e-05 1.37072e-05 0.327277 13385.7 1 1.60442 0.178284
142 1 2.35388e-05 1.31652e-05 0.329648 13388.8 1 1.60442 0.17828
143 1 1.62874e-05 1.24994e-05 0.332081 13391.9 1 1.60442 0.178276
144 1 1.00702e-05 1.17102e-05 0.334512 13395.1 1 1.60442 0.178273
145 1 5.03674e-06 1.08287e-05 0.336952 13398.2 1 1.60442 0.178271
146 1 1.26879e-06 9.95087e-06 0.339369 13401.4 1 1.60442 0.178269
147 1 -1.13973e-06 8.83203e-06 0.342035 13404.8 1 1.60442 0.178269
148 1 -1.58717e-06 6.86668e-06 0.343139 13406.2 1 1.60443 0.178269
149 1 0 0 0.343139 13406.2 1 1.60443 0.17827
0 2 0 0 0.406201 13488 1 1.60436 0.178262
1 2 -5.28872e-07 7.95364e-06 0.406201 13488 1 1.60436 0.178262
2 2 -3.00469e-06 1.45731e-05 0.40532 13486.8 1 1.60436 0.17826
3 2 -9.67293e-06 1.97487e-05 0.403906 13485 1 1.60436 0.178256
4 2 -2.05897e-05 2.42012e-05 0.403031 13483.9 1 1.60435 0.178249
5 2 -3.51649e-05 2.8156e-05 0.401787 13482.3 1 1.60435 0.17824
6 2 -5.28109e-05 3.15362e-05 0.400346 13480.4 1 1.60435 0.17823
7 2 -7.30359e-05 3.43015e-05 0.398487 13478 1 1.60435 0.178219
8 2 -9.53616e-05 3.64556e-05 0.396221 13475 1 1.60435 0.178207
9 2 -0.000119313 3.8028e-05 0.393458 13471.5 1 1.60435 0.178194
10 2 -0.000144436 3.90573e-05 0.390196 13467.2 1 1.60436 0.178181
11 2 -0.000170307 3.95868e-05 0.386405 13462.3 1 1.60436 0.178167
12 2 -0.00019654 3.96617e-05 0.382097 13456.7 1 1.60436 0.178154
13 2 -0.000222784 3.93286e-05 0.377283 13450.5 1 1.60437 0.17814
14 2 -0.000248728 3.86344e-05 0.371992 13443.6 1 1.60437 0.178127
15 2 -0.000274097 3.76257e-05 0.366262 13436.2 1 1.60438 0.178115
16 2 -0.000298652 3.63486e-05 0.360142 13428.3 1 1.60439 0.178103
17 2 -0.000322192 3.48477e-05 0.353687 13419.9 1 1.6044 0.178091
18 2 -0.000344552 3.31664e-05 0.346959 13411.2 1 1.60441 0.17808
19 2 -0.000365598 3.13457e-05 0.340024 13402.2 1 1.60441 0.17807
20 2 -0.000385231 2.94242e-05 0.332949 13393 1 1.60442 0.178061
21 2 -0.00040338 2.7438e-05 0.325804 13383.8 1 1.60443 0.178053
22 2 -0.000420001 2.54195e-05 0.318658 13374.5 1 1.60445 0.178045
23 2 -0.000435075 2.33982e-05 0.311576 13365.3 1 1.60446 0.178039
24 2 -0.000448605 2.13998e-05 0.304624 13356.3 1 1.60447 0.178033
25 2 -0.000460611 1.94466e-05 0.297861 13347.6 1 1.60448 0.178028
26 2 -0.000471132 1.75573e-05 0.291342 13339.1 1 1.60449 0.178024
27 2 -0.000480218 1.5747e-05 0.285117 13331 1 1.6045 0.17802
28 2 -0.000487931 1.40277e-05 0.279231 13323.4 1 1.60451 0.178018
29 2 -0.00049434 1.24081e-05 0.273722 13316.3 1 1.60452 0.178015
30 2 -0.000499521 1.08943e-05 0.268623 13309.7 1 1.60453 0.178014
31 2 -0.00050355 9.48964e-06 0.263958 13303.6 1 1.60454 0.178013
32 2 -0.00050651 8.19508e-06 0.259748 13298.2 1 1.60455 0.178013
33 2 -0.000508479 7.00966e-06 0.256005 13293.3 1 1.60456 0.178013
34 2 -0.000509536 5.93063e-06 0.252737 13289.1 1 1.60457 0.178014
35 2 -0.000509756 4.95377e-06 0.249945 13285.4 1 1.60458 0.178015
36 2 -0.000509212 4.0736e-06 0.247623 13282.4 1 1.60459 0.178016
37 2 -0.00050797 3.28364e-06 0.245762 13280 1 1.6046 0.178018
38 2 -0.000506093 2.57663e-06 0.244346 13278.2 1 1.60461 0.17802
39 2 -0.000503636 1.94472e-06 0.243354 13276.9 1 1.60462 0.178022
40 2 -0.000500648 1.37963e-06 0.242761 13276.1 1 1.60463 0.178025
41 2 -0.000497175 8.72848e-07 0.242539 13275.8 1 1.60464 0.178028
42 2 -0.000493252 4.1571e-07 0.242654 13276 1 1.60464 0.178031
43 2 -0.00048891 -4.20091e-10 0.24307 13276.5 1 1.60465 0.178034
44 2 -0.000484175 -3.84063e-07 0.243749 13277.4 1 1.60466 0.178037
45 2 -0.000479064 -7.43518e-07 0.244649 13278.6 1 1.60467 0.178041
46 2 -0.00047359 -1.08677e-06 0.245728 13280 1 1.60467 0.178045
47 2 -0.000467762 -1.42142e-06 0.246942 13281.6 1 1.60468 0.178049
48 2 -0.00046158 -1.75458e-06 0.248247 13283.2 1 1.60469 0.178053
49 2 -0.000455044 -2.09287e-06 0.249599 13285 1 1.60469 0.178057
50 2 -0.000448145 -2.44228e-06 0.250955 13286.8 1 1.6047 0.178062
51 2 -0.000440875 -2.80819e-06 0.252272 13288.5 1 1.60471 0.178066
52 2 -0.00043322 -3.1953e-06 0.253511 13290.1 1 1.60471 0.178071
53 2 -0.000425163 -3.60757e-06 0.254634 13291.5 1 1.60472 0.178076
54 2 -0.000416687 -4.04826e-06 0.255605 13292.8 1 1.60473 0.178081
55 2 -0.000407773 -4.51984e-06 0.256392 13293.8 1 1.60473 0.178087
56 2 -0.000398399 -5.02403e-06 0.256969 13294.6 1 1.60474 0.178093
57 2 -0.000388545 -5.56176e-06 0.25731 13295 1 1.60474 0.178099
58 2 -0.000378189 -6.13322e-06 0.257396 13295.1 1 1.60475 0.178105
59 2 -0.000367313 -6.73783e-06 0.257213 13294.9 1 1.60476 0.178111
60 2 -0.000355896 -7.37429e-06 0.256749 13294.3 1 1.60476 0.178118
61 2 -0.000343921 -8.04063e-06 0.255999 13293.3 1 1.60477 0.178125
62 2 -0.000331373 -8.73418e-06 0.254962 13292 1 1.60477 0.178133
63 2 -0.000318239 -9.45169e-06 0.253643 13290.2 1 1.60478 0.17814
64 2 -0.000304508 -1.01894e-05 0.252051 13288.2 1 1.60478 0.178149
65 2 -0.000290174 -1.09428e-05 0.250198 13285.8 1 1.60479 0.178157
66 2 -0.000275234 -1.17074e-05 0.248102 13283.1 1 1.60479 0.178165
67 2 -0.000259686 -1.24778e-05 0.245785 13280.1 1 1.6048 0.178174
68 2 -0.000243536 -1.32486e-05 0.243272 13276.8 1 1.6048 0.178184
69 2 -0.000226792 -1.40142e-05 0.240591 13273.3 1 1.60481 0.178193
70 2 -0.000209465 -1.47686e-05 0.237774 13269.7 1 1.60481 0.178203
71 2 -0.000191572 -1.55059e-05 0.234855 13265.9 1 1.60482 0.178213
72 2 -0.000173134 -1.62199e-05 0.231869 13262 1 1.60482 0.178223
73 2 -0.000154176 -1.69046e-05 0.228852 13258.1 1 1.60482 0.178234
74 2 -0.000134726 -1.75541e-05 0.225844 13254.2 1 1.60483 0.178245
75 2 -0.000114817 -1.81625e-05 0.222883 13250.4 1 1.60483 0.178256
76 2 -9.44866e-05 -1.87243e-05 0.220006 13246.6 1 1.60483 0.178267
77 2 -7.37741e-05 -1.92341e-05 0.217252 13243.1 1 1.60484 0.178278
78 2 -5.27239e-05 -1.96867e-05 0.214657 13239.7 1 1.60484 0.17829
79 2 -3.13828e-05 -2.00775e-05 0.212256 13236.6 1 1.60484 0.178302
80 2 -9.80099e-06 -2.0402e-05 0.210082 13233.8 1 1.60484 0.178313
81 2 1.19688e-05 -2.06563e-05 0.208166 13231.3 1 1.60484 0.178325
82 2 3.38715e-05 -2.08368e-05 0.206536 13229.2 1 1.60484 0.178337
83 2 5.58498e-05 -2.09404e-05 0.205216 13227.5 1 1.60484 0.178348
84 2 7.78446e-05 -2.09646e-05 0.204229 13226.2 1 1.60484 0.17836
85 2 9.97954e-05 -2.09072e-05 0.203592 13225.4 1 1.60484 0.178371
86 2 0.00012164 -2.07665e-05 0.203318 13225 1 1.60483 0.178383
87 2 0.000143317 -2.05415e-05 0.203418 13225.1 1 1.60483 0.178394
88 2 0.000164762 -2.02315e-05 0.203897 13225.8 1 1.60483 0.178405
89 2 0.000185912 -1.98364e-05 0.204757 13226.9 1 1.60482 0.178416
90 2 0.000206703 -1.93564e-05 0.205995 13228.5 1 1.60482 0.178427
91 2 0.000227074 -1.87925e-05 0.207604 13230.6 1 1.60482 0.178437
92 2 0.00024696 -1.81459e-05 0.209574 13233.1 1 1.60481 0.178447
93 2 0.000266302 -1.74184e-05 0.211889 13236.1 1 1.6048 0.178457
94 2 0.000285039 -1.66122e-05 0.214532 13239.5 1 1.6048 0.178466
95 2 0.000303112 -1.57297e-05 0.217479 13243.4 1 1.60479 0.178475
96 2 0.000320465 -1.4774e-05 0.220707 13247.5 1 1.60478 0.178483
97 2 0.000337042 -1.37485e-05 0.224185 13252.1 1 1.60478 0.178491
98 2 0.000352791 -1.26567e-05 0.227885 13256.9 1 1.60477 0.178498
99 2 0.000367662 -1.15026e-05 0.231773 13261.9 1 1.60476 0.178505
100 2 0.000381606 -1.02905e-05 0.235814 13267.1 1 1.60475 0.178512
101 2 0.000394578 -9.02486e-06 0.239972 13272.5 1 1.60474 0.178518
102 2 0.000406538 -7.71043e-06 0.244212 13278 1 1.60474 0.178523
103 2 0.000417445 -6.3521e-06 0.248495 13283.6 1 1.60473 0.178527
104 2 0.000427264 -4.95493e-06 0.252785 13289.1 1 1.60472 0.178531
105 2 0.000435963 -3.52411e-06 0.257046 13294.7 1 1.60471 0.178535
106 2 0.000443514 -2.06493e-06 0.261244 13300.1 1 1.6047 0.178538
107 2 0.00044989 -5.82741e-07 0.265344 13305.4 1 1.60469 0.17854
108 2 0.000455072 9.17091e-07 0.269316 13310.6 1 1.60468 0.178541
109 2 0.000459041 2.42919e-06 0.273131 13315.5 1 1.60467 0.178542
110 2 0.000461784 3.94823e-06 0.276764 13320.2 1 1.60466 0.178542
111 2 0.000463292 5.46895e-06 0.280193 13324.7 1 1.60465 0.178542
112 2 0.000463558 6.98617e-06 0.283399 13328.8 1 1.60463 0.178541
113 2 0.000462581 8.49485e-06 0.286368 13332.7 1 1.60462 0.178539
114 2 0.000460363 9.99011e-06 0.289091 13336.2 1 1.60461 0.178536
115 2 0.00045691 1.14672e-05 0.291561 13339.4 1 1.6046 0.178533
116 2 0.000452233 1.29217e-05 0.293778 13342.3 1 1.60459 0.178529
117 2 0.000446346 1.4349e-05 0.295746 13344.8 1 1.60459 0.178525
118 2 0.000439267 1.57452e-05 0.297473 13347.1 1 1.60458 0.17852
119 2 0.000431018 1.71062e-05 0.298971 13349 1 1.60457 0.178514
120 2 0.000421625 1.8428e-05 0.300257 13350.7 1 1.60456 0.178508
121 2 0.000411119 1.9707e-05 0.301351 13352.1 1 1.60455 0.178501
122 2 0.000399532 2.09394e-05 0.302279 13353.3 1 1.60454 0.178494
123 2 0.000386904 2.21213e-05 0.303065 13354.3 1 1.60453 0.178486
124 2 0.000373277 2.32487e-05 0.303741 13355.2 1 1.60452 0.178478
125 2 0.000358699 2.43174e-05 0.304337 13355.9 1 1.60452 0.178469
126 2 0.000343221 2.53226e-05 0.304885 13356.7 1 1.60451 0.17846
127 2 0.000326901 2.6259e-05 0.305416 13357.3 1 1.6045 0.17845
128 2 0.000309804 2.71204e-05 0.305964 13358.1 1 1.6045 0.17844
129 2 0.000291999 2.78999e-05 0.306558 13358.8 1 1.60449 0.17843
130 2 0.000273566 2.8589e-05 0.307226 13359.7 1 1.60448 0.17842
131 2 0.00025459 2.91781e-05 0.307993 13360.7 1 1.60448 0.178409
132 2 0.000235168 2.96557e-05 0.308882 13361.8 1 1.60447 0.178398
133 2 0.000215409 3.00088e-05 0.309909 13363.2 1 1.60447 0.178387
134 2 0.000195433 3.0222e-05 0.311086 13364.7 1 1.60447 0.178376
135 2 0.000175373 3.0278e-05 0.312421 13366.4 1 1.60446 0.178365
136 2 0.000155381 3.01572e-05 0.313914 13368.4 1 1.60446 0.178354
137 2 0.000135623 2.98375e-05 0.315561 13370.5 1 1.60446 0.178343
138 2 0.000116285 2.92949e-05 0.317349 13372.8 1 1.60446 0.178332
139 2 9.75726e-05 2.85034e-05 0.319265 13375.3 1 1.60445 0.178322
140 2 7.97126e-05 2.74362e-05 0.32128 13377.9 1 1.60445 0.178313
141 2 6.29525e-05 2.60661e-05 0.323376 13380.6 1 1.60445 0.178304
142 2 4.75594e-05 2.43684e-05 0.325501 13383.4 1 1.60445 0.178296
143 2 3.38109e-05 2.23243e-05 0.327652 13386.2 1 1.60446 0.178289
144 2 2.19821e-05 1.99358e-05 0.32972 13388.8 1 1.60446 0.178283
145 2 1.2358e-05 1.72352e-05 0.331781 13391.5 1 1.60446 0.178278
146 2 5.30946e-06 1.42776e-05 0.333521 13393.8 1 1.60446 0.178275
147 2 1.23268e-06 1.08087e-05 0.335631 13396.5 1 1.60446 0.178274
148 2 3.11672e-08 6.10621e-06 0.3368 13398 1 1.60446 0.178274
149 2 0 0 0.3368 13398 1 1.60446 0.178274
0 3 0 0 0.397104 13476.2 1 1.6044 0.178267
1 3 -2.36423e-06 9.87693e-06 0.397104 13476.2 1 1.6044 0.178266
2 3 -7.79843e-06 2.07491e-05 0.396405 13475.3 1 1.6044 0.178262
3 3 -1.83088e-05 3.06903e-05 0.395599 13474.2 1 1.6044 0.178255
4 3 -3.39989e-05 3.97015e-05 0.394858 13473.3 1 1.6044 0.178246
5 3 -5.44143e-05 4.75815e-05 0.393407 13471.4 1 1.6044 0.178234
6 3 -7.89569e-05 5.43061e-05 0.391835 13469.4 1 1.6044 0.17822
7 3 -0.000106992 5.98442e-05 0.389786 13466.7 1 1.6044 0.178205
8 3 -0.000137876 6.42109e-05 0.387366 13463.6 1 1.6044 0.178188
9 3 -0.000170989 6.74532e-05 0.384458 13459.8 1 1.6044 0.17817
10 3 -0.000205738 6.96409e-05 0.381084 13455.4 1 1.6044 0.178152
11 3 -0.000241566 7.08544e-05 0.37721 13450.4 1 1.6044 0.178133
12 3 -0.00027796 7.11795e-05 0.372857 13444.8 1 1.60441 0.178114
13 3 -0.000314449 7.07052e-05 0.368033 13438.5 1 1.60441 0.178095
14 3 -0.000350611 6.95215e-05 0.362773 13431.7 1 1.60442 0.178076
15 3 -0.000386073 6.77184e-05 0.357113 13424.4 1 1.60442 0.178058
16 3 -0.000420508 6.53848e-05 0.351104 13416.6 1 1.60443 0.178041
17 3 -0.000453639 6.26073e-05 0.344797 13408.4 1 1.60444 0.178024
18 3 -0.000485234 5.94695e-05 0.338255 13399.9 1 1.60445 0.178008
19 3 -0.000515105 5.60508e-05 0.33154 13391.2 1 1.60445 0.177993
20 3 -0.000543108 5.24261e-05 0.324717 13382.4 1 1.60446 0.17798
21 3 -0.000569137 4.86647e-05 0.317851 13373.5 1 1.60447 0.177967
22 3 -0.000593122 4.48296e-05 0.311007 13364.6 1 1.60448 0.177956
23 3 -0.000615028 4.09776e-05 0.304246 13355.8 1 1.60449 0.177945
24 3 -0.000634847 3.71585e-05 0.297628 13347.3 1 1.6045 0.177936
25 3 -0.000652598 3.34153e-05 0.291206 13338.9 1 1.60451 0.177928
26 3 -0.000668321 2.97841e-05 0.28503 13330.9 1 1.60452 0.177921
27 3 -0.000682075 2.62943e-05 0.279144 13323.3 1 1.60453 0.177915
28 3 -0.000693934 2.29691e-05 0.273588 13316.1 1 1.60454 0.17791
29 3 -0.000703981 1.98255e-05 0.268393 13309.4 1 1.60455 0.177906
30 3 -0.00071231 1.68751e-05 0.263587 13303.1 1 1.60456 0.177903
31 3 -0.000719019 1.41246e-05 0.259189 13297.4 1 1.60457 0.177901
32 3 -0.000724209 1.15761e-05 0.255216 13292.3 1 1.60458 0.1779
33 3 -0.000727982 9.22783e-06 0.251676 13287.7 1 1.60459 0.177899
34 3 -0.000730438 7.07481e-06 0.248573 13283.7 1 1.6046 0.177899
35 3 -0.000731673 5.10908e-06 0.245905 13280.2 1 1.60461 0.177899
36 3 -0.00073178 3.32039e-06 0.243664 13277.3 1 1.60462 0.1779
37 3 -0.000730846 1.6966e-06 0.241839 13274.9 1 1.60463 0.177902
38 3 -0.00072895 2.24131e-07 0.240414 13273.1 1 1.60464 0.177904
39 3 -0.000726166 -1.11167e-06 0.239368 13271.7 1 1.60465 0.177906
40 3 -0.000722559 -2.32621e-06 0.238677 13270.8 1 1.60465 0.177909
41 3 -0.000718186 -3.43528e-06 0.238314 13270.4 1 1.60466 0.177913
42 3 -0.000713095 -4.45486e-06 0.238247 13270.3 1 1.60467 0.177916
43 3 -0.000707329 -5.40082e-06 0.238443 13270.5 1 1.60468 0.17792
44 3 -0.000700919 -6.28872e-06 0.238868 13271.1 1 1.60468 0.177925
45 3 -0.000693892 -7.13363e-06 0.239485 13271.9 1 1.60469 0.177929
46 3 -0.000686266 -7.94997e-06 0.240254 13272.9 1 1.6047 0.177934
47 3 -0.000678051 -8.75133e-06 0.241138 13274 1 1.60471 0.177939
48 3 -0.000669253 -9.55038e-06 0.242098 13275.3 1 1.60471 0.177945
49 3 -0.00065987 -1.03587e-05 0.243096 13276.6 1 1.60472 0.177951
50 3 -0.000649897 -1.11869e-05 0.244093 13277.9 1 1.60473 0.177957
51 3 -0.000639323 -1.2044e-05 0.245053 13279.1 1 1.60473 0.177963
52 3 -0.000628132 -1.29382e-05 0.245942 13280.3 1 1.60474 0.17797
53 3 -0.000616308 -1.38759e-05 0.246728 13281.3 1 1.60474 0.177977
54 3 -0.000603829 -1.48625e-05 0.247381 13282.1 1 1.60475 0.177985