Title="LBM for phase change with fin"
dt=1 dx=1
VARIABLES="X","Y","U","V","T","H","fl","pa","Test"
ZONE T="BOX",I=150,J=150,F=POINT
0 0 0 0 0.0201697 3880.8 1 1.00044 0.11116
1 0 0 0 0.0270226 3883.45 1 1.00044 0.11116
2 0 0 0 0.0274943 3883.63 1 1.00044 0.11116
3 0 0 0 0.0274794 3883.63 1 1.00044 0.11116
4 0 0 0 0.0277073 3883.71 1 1.00044 0.11116
5 0 0 0 0.0280966 3883.87 1 1.00044 0.11116
6 0 0 0 0.0285272 3884.03 1 1.00044 0.11116
7 0 0 0 0.0289877 3884.21 1 1.00044 0.11116
8 0 0 0 0.0294667 3884.4 1 1.00044 0.11116
9 0 0 0 0.0299483 3884.58 1 1.00044 0.11116
10 0 0 0 0.0304304 3884.77 1 1.00044 0.11116
11 0 0 0 0.0309115 3884.96 1 1.00044 0.11116
12 0 0 0 0.0313904 3885.14 1 1.00044 0.11116
13 0 0 0 0.0318697 3885.33 1 1.00044 0.11116
14 0 0 0 0.032358 3885.52 1 1.00044 0.11116
15 0 0 0 0.0328655 3885.71 1 1.00044 0.11116
16 0 0 0 0.0333922 3885.92 1 1.00044 0.11116
17 0 0 0 0.0340372 3886.17 1 1.00044 0.11116
18 0 0 0 0.0348931 3886.5 1 1.00044 0.11116
19 0 0 0 0.0357826 3886.84 1 1.00044 0.11116
20 0 0 0 0.0369566 3887.3 1 1.00044 0.11116
21 0 0 0 0.0388225 3888.02 1 1.00044 0.11116
22 0 0 0 0.0407205 3888.75 1 1.00044 0.111159
23 0 0 0 0.0421684 3889.32 1 1.00044 0.111159
24 0 0 0 0.0433876 3889.79 1 1.00044 0.111159
25 0 0 0 0.0443868 3890.17 1 1.00043 0.111159
26 0 0 0 0.0451445 3890.47 1 1.00043 0.111159
27 0 0 0 0.0457451 3890.7 1 1.00043 0.111159
28 0 0 0 0.0462184 3890.88 1 1.00043 0.111159
29 0 0 0 0.0465949 3891.03 1 1.00043 0.111159
30 0 0 0 0.0469016 3891.15 1 1.00043 0.111159
31 0 0 0 0.0471508 3891.24 1 1.00043 0.111159
32 0 0 0 0.0473524 3891.32 1 1.00043 0.111159
33 0 0 0 0.0475127 3891.38 1 1.00043 0.111159
34 0 0 0 0.0476358 3891.43 1 1.00043 0.111159
35 0 0 0 0.0477242 3891.47 1 1.00043 0.111159
36 0 0 0 0.0477797 3891.49 1 1.00043 0.111159
37 0 0 0 0.047803 3891.5 1 1.00043 0.111159
38 0 0 0 0.0477945 3891.49 1 1.00043 0.111159
39 0 0 0 0.047754 3891.48 1 1.00043 0.111159
40 0 0 0 0.0476809 3891.45 1 1.00043 0.111159
41 0 0 0 0.047574 3891.41 1 1.00043 0.111159
42 0 0 0 0.0474313 3891.35 1 1.00043 0.111159
43 0 0 0 0.0472501 3891.28 1 1.00043 0.111159
44 0 0 0 0.0470263 3891.2 1 1.00043 0.111159
45 0 0 0 0.0467536 3891.09 1 1.00043 0.111159
46 0 0 0 0.0464226 3890.96 1 1.00043 0.111159
47 0 0 0 0.0460219 3890.81 1 1.00043 0.111159
48 0 0 0 0.0455254 3890.62 1 1.00043 0.111159
49 0 0 0 0.0449042 3890.37 1 1.00043 0.111159
50 0 0 0 0.0441299 3890.07 1 1.00043 0.111159
51 0 0 0 0.0431201 3889.68 1 1.00043 0.111159
52 0 0 0 0.0418965 3889.21 1 1.00043 0.111159
53 0 0 0 0.0404507 3888.65 1 1.00043 0.111159
54 0 0 0 0.0385623 3887.92 1 1.00043 0.111159
55 0 0 0 0.0367076 3887.2 1 1.00043 0.111159
56 0 0 0 0.0355396 3886.75 1 1.00043 0.111159
57 0 0 0 0.0346536 3886.4 1 1.00043 0.111159
58 0 0 0 0.0338005 3886.07 1 1.00043 0.111159
59 0 0 0 0.0331555 3885.82 1 1.00043 0.111159
60 0 0 0 0.0326266 3885.62 1 1.00043 0.111159
61 0 0 0 0.0321154 3885.42 1 1.00043 0.111159
62 0 0 0 0.0316213 3885.23 1 1.00043 0.111159
63 0 0 0 0.0311335 3885.04 1 1.00043 0.111159
64 0 0 0 0.0306424 3884.85 1 1.00043 0.111159
65 0 0 0 0.0301431 3884.66 1 1.00043 0.111159
66 0 0 0 0.0296321 3884.46 1 1.00043 0.111159
67 0 0 0 0.0291046 3884.26 1 1.00043 0.111159
68 0 0 0 0.0285534 3884.04 1 1.00043 0.111159
69 0 0 0 0.0279637 3883.81 1 1.00043 0.111159
70 0 0 0 0.0273233 3883.57 1 1.00043 0.111158
71 0 0 0 0.0265905 3883.28 1 1.00043 0.111158
72 0 0 0 0.0256954 3882.94 1 1.00043 0.111158
73 0 0 0 0.0245739 3882.5 1 1.00042 0.111158
74 0 0 0 0.0229766 3881.88 1 1.00042 0.111158
75 0 0 0 0.020999 3881.12 1 1.00042 0.111158
76 0 0 0 0.0192108 3880.42 1 1.00042 0.111158
77 0 0 0 0.0179584 3879.94 1 1.00042 0.111158
78 0 0 0 0.0173839 3879.72 1 1.00042 0.111158
79 0 0 0 0.0169353 3879.54 1 1.00042 0.111158
80 0 0 0 0.0164603 3879.36 1 1.00042 0.111158
81 0 0 0 0.016056 3879.2 1 1.00042 0.111158
82 0 0 0 0.0156733 3879.05 1 1.00042 0.111158
83 0 0 0 0.0152988 3878.91 1 1.00042 0.111158
84 0 0 0 0.0149335 3878.77 1 1.00042 0.111158
85 0 0 0 0.0145763 3878.63 1 1.00042 0.111157
86 0 0 0 0.0142259 3878.49 1 1.00042 0.111157
87 0 0 0 0.0138827 3878.36 1 1.00041 0.111157
88 0 0 0 0.0135463 3878.23 1 1.00041 0.111157
89 0 0 0 0.0132151 3878.1 1 1.00041 0.111157
90 0 0 0 0.0128865 3877.97 1 1.00041 0.111157
91 0 0 0 0.0125537 3877.85 1 1.00041 0.111156
92 0 0 0 0.0121907 3877.7 1 1.00041 0.111156
93 0 0 0 0.0117636 3877.54 1 1.00041 0.111156
94 0 0 0 0.0112079 3877.32 1 1.0004 0.111156
95 0 0 0 0.0102729 3876.96 1 1.0004 0.111156
96 0 0 0 0.00878681 3876.39 1 1.0004 0.111156
97 0 0 0 0.00739992 3875.85 1 1.0004 0.111156
98 0 0 0 0.00684354 3875.63 1 1.0004 0.111155
99 0 0 0 0.00673953 3875.59 1 1.0004 0.111155
100 0 0 0 0.00663879 3875.55 1 1.0004 0.111155
101 0 0 0 0.00651702 3875.51 1 1.0004 0.111155
102 0 0 0 0.00641144 3875.47 1 1.0004 0.111155
103 0 0 0 0.0063187 3875.43 1 1.00039 0.111155
104 0 0 0 0.00623384 3875.4 1 1.00039 0.111155
105 0 0 0 0.00615899 3875.37 1 1.00039 0.111155
106 0 0 0 0.00609425 3875.34 1 1.00039 0.111155
107 0 0 0 0.00603964 3875.32 1 1.00039 0.111154
108 0 0 0 0.00599527 3875.31 1 1.00039 0.111154
109 0 0 0 0.00596127 3875.29 1 1.00039 0.111154
110 0 0 0 0.00593767 3875.28 1 1.00039 0.111154
111 0 0 0 0.00592453 3875.28 1 1.00039 0.111154
112 0 0 0 0.00592187 3875.28 1 1.00039 0.111154
113 0 0 0 0.00592969 3875.28 1 1.00039 0.111154
114 0 0 0 0.00594799 3875.29 1 1.00038 0.111154
115 0 0 0 0.00597673 3875.3 1 1.00038 0.111154
116 0 0 0 0.00601584 3875.31 1 1.00038 0.111154
117 0 0 0 0.00606527 3875.33 1 1.00038 0.111154
118 0 0 0 0.00612488 3875.36 1 1.00038 0.111154
119 0 0 0 0.00619456 3875.38 1 1.00038 0.111153
120 0 0 0 0.00627428 3875.41 1 1.00038 0.111153
121 0 0 0 0.00636395 3875.45 1 1.00038 0.111153
122 0 0 0 0.00646139 3875.49 1 1.00038 0.111153
123 0 0 0 0.00657165 3875.53 1 1.00038 0.111153
124 0 0 0 0.00669813 3875.58 1 1.00038 0.111153
125 0 0 0 0.00680319 3875.62 1 1.00038 0.111153
126 0 0 0 0.00691152 3875.66 1 1.00038 0.111153
127 0 0 0 0.00747726 3875.88 1 1.00038 0.111153
128 0 0 0 0.00888292 3876.42 1 1.00038 0.111153
129 0 0 0 0.010389 3877.01 1 1.00038 0.111153
130 0 0 0 0.0113378 3877.37 1 1.00038 0.111153
131 0 0 0 0.0119026 3877.59 1 1.00038 0.111153
132 0 0 0 0.0123367 3877.76 1 1.00038 0.111153
133 0 0 0 0.0127052 3877.9 1 1.00038 0.111153
134 0 0 0 0.0130426 3878.03 1 1.00038 0.111153
135 0 0 0 0.0133752 3878.16 1 1.00038 0.111153
136 0 0 0 0.01371 3878.29 1 1.00038 0.111153
137 0 0 0 0.01405 3878.42 1 1.00038 0.111153
138 0 0 0 0.0143966 3878.56 1 1.00038 0.111153
139 0 0 0 0.0147511 3878.7 1 1.00037 0.111153
140 0 0 0 0.0151145 3878.84 1 1.00037 0.111153
141 0 0 0 0.0154844 3878.98 1 1.00037 0.111153
142 0 0 0 0.0158758 3879.13 1 1.00037 0.111153
143 0 0 0 0.016317 3879.3 1 1.00037 0.111153
144 0 0 0 0.0167191 3879.46 1 1.00037 0.111153
145 0 0 0 0.0172303 3879.66 1 1.00037 0.111153
146 0 0 0 0.0183035 3880.07 1 1.00037 0.111153
147 0 0 0 0.0197236 3880.62 1 1.00037 0.111153
148 0 0 0 0.0202044 3880.81 1 1.00037 0.111153
149 0 0 0 0.0136345 3878.26 1 1.00037 0.111153
0 1 0 0 0.0201697 3880.8 1 1.00044 0.11116
1 1 8.55535e-08 4.0243e-07 0.0201697 3880.8 1 1.00044 0.11116
2 1 8.18763e-08 4.87678e-07 0.0205002 3880.92 1 1.00044 0.11116
3 1 5.98719e-08 4.48277e-07 0.0203446 3880.86 1 1.00044 0.11116
4 1 8.89803e-08 4.07277e-07 0.0204326 3880.9 1 1.00044 0.11116
5 1 1.31281e-07 4.29439e-07 0.0206829 3880.99 1 1.00044 0.11116
6 1 1.56664e-07 4.46423e-07 0.0209758 3881.11 1 1.00044 0.11116
7 1 1.6855e-07 4.67408e-07 0.0213001 3881.23 1 1.00044 0.11116
8 1 1.85698e-07 4.43261e-07 0.0216446 3881.37 1 1.00044 0.11116
9 1 2.36277e-07 4.38487e-07 0.0219937 3881.5 1 1.00044 0.11116
10 1 3.0091e-07 4.44422e-07 0.0223455 3881.64 1 1.00044 0.11116
11 1 3.09408e-07 5.30999e-07 0.0226987 3881.77 1 1.00044 0.11116
12 1 2.76714e-07 5.28355e-07 0.0230524 3881.91 1 1.00044 0.11116
13 1 2.53474e-07 5.26684e-07 0.0234094 3882.05 1 1.00044 0.11116
14 1 2.65899e-07 4.9865e-07 0.0237786 3882.19 1 1.00044 0.11116
15 1 3.06619e-07 4.96655e-07 0.0241703 3882.34 1 1.00044 0.11116
16 1 3.4919e-07 5.0919e-07 0.0245846 3882.5 1 1.00044 0.11116
17 1 3.96383e-07 5.10371e-07 0.025121 3882.71 1 1.00044 0.11116
18 1 4.73166e-07 4.9065e-07 0.0258722 3883 1 1.00044 0.11116
19 1 5.98523e-07 4.68284e-07 0.0266612 3883.31 1 1.00044 0.11116
20 1 7.47834e-07 4.97237e-07 0.0277388 3883.73 1 1.00044 0.11116
21 1 8.58838e-07 5.9316e-07 0.0295129 3884.41 1 1.00044 0.11116
22 1 8.91472e-07 6.98359e-07 0.0313237 3885.11 1 1.00044 0.11116
23 1 8.70141e-07 7.50912e-07 0.0326892 3885.64 1 1.00044 0.11116
24 1 8.46668e-07 7.604e-07 0.0338309 3886.09 1 1.00044 0.11116
25 1 8.48737e-07 7.57511e-07 0.0347576 3886.44 1 1.00043 0.11116
26 1 8.75605e-07 7.56357e-07 0.0354481 3886.71 1 1.00043 0.11116
27 1 9.18769e-07 7.58431e-07 0.0359867 3886.92 1 1.00043 0.11116
28 1 9.72175e-07 7.61043e-07 0.0364034 3887.08 1 1.00043 0.11116
29 1 1.03295e-06 7.6323e-07 0.0367289 3887.21 1 1.00043 0.11116
30 1 1.09923e-06 7.65298e-07 0.0369901 3887.31 1 1.00043 0.11116
31 1 1.16941e-06 7.67441e-07 0.0371996 3887.39 1 1.00043 0.11116
32 1 1.24225e-06 7.69434e-07 0.0373672 3887.46 1 1.00043 0.11116
33 1 1.31696e-06 7.71139e-07 0.0374993 3887.51 1 1.00043 0.11116
34 1 1.39297e-06 7.7254e-07 0.0376001 3887.55 1 1.00043 0.11116
35 1 1.46984e-06 7.73609e-07 0.0376722 3887.57 1 1.00043 0.11116
36 1 1.54723e-06 7.7431e-07 0.0377173 3887.59 1 1.00043 0.11116
37 1 1.62487e-06 7.74625e-07 0.0377361 3887.6 1 1.00043 0.11116
38 1 1.70252e-06 7.74553e-07 0.0377291 3887.6 1 1.00043 0.11116
39 1 1.77994e-06 7.74088e-07 0.0376961 3887.58 1 1.00043 0.11116
40 1 1.8569e-06 7.73228e-07 0.0376364 3887.56 1 1.00043 0.11116
41 1 1.93313e-06 7.71978e-07 0.0375488 3887.53 1 1.00043 0.11116
42 1 2.0083e-06 7.70363e-07 0.0374313 3887.48 1 1.00043 0.11116
43 1 2.08198e-06 7.68396e-07 0.0372813 3887.42 1 1.00043 0.11116
44 1 2.15366e-06 7.66086e-07 0.0370944 3887.35 1 1.00043 0.11116
45 1 2.22257e-06 7.63557e-07 0.0368644 3887.26 1 1.00043 0.11116
46 1 2.28753e-06 7.61021e-07 0.0365817 3887.15 1 1.00043 0.11116
47 1 2.347e-06 7.5831e-07 0.0362349 3887.02 1 1.00043 0.11116
48 1 2.3992e-06 7.55191e-07 0.0357978 3886.85 1 1.00043 0.11116
49 1 2.44122e-06 7.52617e-07 0.0352414 3886.63 1 1.00043 0.11116
50 1 2.4672e-06 7.53203e-07 0.0345371 3886.36 1 1.00043 0.11116
51 1 2.46865e-06 7.55676e-07 0.0336023 3886 1 1.00043 0.11116
52 1 2.44463e-06 7.4649e-07 0.0324588 3885.55 1 1.00043 0.11116
53 1 2.42208e-06 6.94655e-07 0.0310978 3885.03 1 1.00043 0.11116
54 1 2.45317e-06 5.89617e-07 0.0292988 3884.33 1 1.00043 0.11116
55 1 2.56233e-06 4.94667e-07 0.0275381 3883.65 1 1.00043 0.11116
56 1 2.70764e-06 4.69846e-07 0.0264684 3883.23 1 1.00043 0.11116
57 1 2.82615e-06 4.91792e-07 0.025685 3882.93 1 1.00043 0.11116
58 1 2.90334e-06 4.98519e-07 0.0249384 3882.64 1 1.00043 0.11116
59 1 2.96041e-06 4.98724e-07 0.0244038 3882.43 1 1.00043 0.11116
60 1 2.99336e-06 5.23665e-07 0.023989 3882.27 1 1.00043 0.11116
61 1 2.9997e-06 5.15434e-07 0.0235952 3882.12 1 1.00043 0.11116
62 1 3.06267e-06 3.9933e-07 0.0232219 3881.98 1 1.00043 0.11116
63 1 3.32396e-06 1.88324e-07 0.0228579 3881.84 1 1.00043 0.11116
64 1 3.835e-06 8.42613e-09 0.0224932 3881.69 1 1.00043 0.11116
65 1 4.37951e-06 1.35258e-07 0.0221231 3881.55 1 1.00043 0.11116
66 1 4.64822e-06 3.88422e-07 0.0217435 3881.4 1 1.00043 0.11116
67 1 4.67473e-06 5.00886e-07 0.0213495 3881.25 1 1.00043 0.11116
68 1 4.62684e-06 4.99536e-07 0.0209337 3881.09 1 1.00043 0.11116
69 1 4.61217e-06 4.43966e-07 0.0204809 3880.92 1 1.00043 0.11116
70 1 4.63274e-06 4.1759e-07 0.0199789 3880.72 1 1.00043 0.11116
71 1 4.64205e-06 4.29439e-07 0.0193856 3880.49 1 1.00043 0.11116
72 1 4.62899e-06 4.27262e-07 0.0186309 3880.2 1 1.00043 0.11116
73 1 4.59881e-06 4.19927e-07 0.0176503 3879.82 1 1.00042 0.11116
74 1 4.5573e-06 3.89081e-07 0.0161945 3879.26 1 1.00042 0.11116
75 1 4.52876e-06 3.23375e-07 0.0143584 3878.54 1 1.00042 0.11116
76 1 4.5313e-06 2.63315e-07 0.0127115 3877.91 1 1.00042 0.11116
77 1 4.54776e-06 2.39708e-07 0.0116001 3877.48 1 1.00042 0.11116
78 1 4.5509e-06 2.49397e-07 0.0111659 3877.31 1 1.00042 0.11116
79 1 4.53853e-06 2.46459e-07 0.0108569 3877.19 1 1.00042 0.111159
80 1 4.52567e-06 2.35539e-07 0.0105202 3877.06 1 1.00042 0.111159
81 1 4.55123e-06 1.8079e-07 0.0102529 3876.95 1 1.00042 0.111159
82 1 4.80841e-06 -1.73161e-07 0.0100056 3876.86 1 1.00042 0.111159
83 1 5.47549e-06 -4.81559e-07 0.00976459 3876.77 1 1.00042 0.11116
84 1 6.23624e-06 -3.08113e-07 0.00953078 3876.67 1 1.00042 0.11116
85 1 6.55399e-06 1.60249e-07 0.00930261 3876.59 1 1.00042 0.11116
86 1 6.55513e-06 2.61461e-07 0.00907884 3876.5 1 1.00042 0.111159
87 1 6.47363e-06 2.56223e-07 0.00885941 3876.41 1 1.00041 0.111159
88 1 6.367e-06 2.80737e-07 0.00864378 3876.33 1 1.00041 0.111159
89 1 6.27541e-06 2.40113e-07 0.00843013 3876.25 1 1.00041 0.111159
90 1 6.20101e-06 2.37602e-07 0.00821566 3876.17 1 1.00041 0.111159
91 1 6.11836e-06 2.41781e-07 0.00799335 3876.08 1 1.00041 0.111158
92 1 6.02932e-06 2.37817e-07 0.007737 3875.98 1 1.00041 0.111158
93 1 5.93858e-06 2.32395e-07 0.00741256 3875.85 1 1.00041 0.111158
94 1 5.84118e-06 2.31544e-07 0.00695532 3875.68 1 1.0004 0.111158
95 1 5.73042e-06 2.23829e-07 0.00611437 3875.35 1 1.0004 0.111158
96 1 5.61253e-06 1.91845e-07 0.00471784 3874.81 1 1.0004 0.111158
97 1 5.49827e-06 1.59117e-07 0.00341577 3874.31 1 1.0004 0.111157
98 1 5.37959e-06 1.58861e-07 0.00293938 3874.12 1 1.0004 0.111157
99 1 5.24766e-06 1.6764e-07 0.00291038 3874.11 1 1.0004 0.111157
100 1 5.11034e-06 1.67151e-07 0.00287952 3874.1 1 1.0004 0.111157
101 1 4.97474e-06 1.63573e-07 0.00282238 3874.08 1 1.0004 0.111157
102 1 4.84063e-06 1.6227e-07 0.00277608 3874.06 1 1.0004 0.111157
103 1 4.70609e-06 1.62149e-07 0.00273714 3874.04 1 1.00039 0.111156
104 1 4.571e-06 1.61526e-07 0.00270052 3874.03 1 1.00039 0.111156
105 1 4.43593e-06 1.60652e-07 0.00266826 3874.02 1 1.00039 0.111156
106 1 4.30099e-06 1.59976e-07 0.00264038 3874.01 1 1.00039 0.111156
107 1 4.16608e-06 1.5946e-07 0.00261684 3874 1 1.00039 0.111156
108 1 4.03121e-06 1.58983e-07 0.0025977 3873.99 1 1.00039 0.111156
109 1 3.89644e-06 1.58551e-07 0.00258302 3873.98 1 1.00039 0.111156
110 1 3.76182e-06 1.58199e-07 0.00257283 3873.98 1 1.00039 0.111155
111 1 3.62738e-06 1.57926e-07 0.00256714 3873.98 1 1.00039 0.111155
112 1 3.49315e-06 1.57724e-07 0.00256598 3873.98 1 1.00039 0.111155
113 1 3.35918e-06 1.5759e-07 0.00256933 3873.98 1 1.00039 0.111155
114 1 3.22549e-06 1.57526e-07 0.0025772 3873.98 1 1.00038 0.111155
115 1 3.09213e-06 1.5754e-07 0.00258956 3873.99 1 1.00038 0.111155
116 1 2.95912e-06 1.5763e-07 0.00260639 3873.99 1 1.00038 0.111155
117 1 2.82651e-06 1.57763e-07 0.00262766 3874 1 1.00038 0.111155
118 1 2.69437e-06 1.57931e-07 0.0026533 3874.01 1 1.00038 0.111154
119 1 2.56273e-06 1.58254e-07 0.00268325 3874.02 1 1.00038 0.111154
120 1 2.43147e-06 1.58771e-07 0.00271755 3874.04 1 1.00038 0.111154
121 1 2.30072e-06 1.59027e-07 0.00275618 3874.05 1 1.00038 0.111154
122 1 2.17106e-06 1.58768e-07 0.00279707 3874.07 1 1.00038 0.111154
123 1 2.04238e-06 1.59693e-07 0.00284536 3874.09 1 1.00038 0.111154
124 1 1.91274e-06 1.62904e-07 0.00290456 3874.11 1 1.00038 0.111154
125 1 1.78193e-06 1.62999e-07 0.00293716 3874.12 1 1.00038 0.111154
126 1 1.65712e-06 1.53713e-07 0.00296797 3874.13 1 1.00038 0.111154
127 1 1.54631e-06 1.5352e-07 0.00345126 3874.32 1 1.00038 0.111154
128 1 1.44062e-06 1.86093e-07 0.00476971 3874.83 1 1.00038 0.111153
129 1 1.33189e-06 2.1812e-07 0.00618397 3875.38 1 1.00038 0.111153
130 1 1.23077e-06 2.25671e-07 0.00703642 3875.71 1 1.00038 0.111153
131 1 1.14374e-06 2.25874e-07 0.00750073 3875.89 1 1.00038 0.111153
132 1 1.06493e-06 2.29577e-07 0.00783012 3876.02 1 1.00038 0.111153
133 1 9.88751e-07 2.34438e-07 0.00809001 3876.12 1 1.00038 0.111153
134 1 9.16722e-07 2.33047e-07 0.00831501 3876.2 1 1.00038 0.111153
135 1 8.51127e-07 2.35327e-07 0.00853175 3876.29 1 1.00038 0.111153
136 1 7.84182e-07 2.45869e-07 0.00874745 3876.37 1 1.00038 0.111153
137 1 7.11687e-07 2.50617e-07 0.0089651 3876.46 1 1.00038 0.111153
138 1 6.43299e-07 2.50015e-07 0.00918654 3876.54 1 1.00038 0.111153
139 1 6.12102e-07 1.9671e-07 0.00941322 3876.63 1 1.00037 0.111153
140 1 5.88968e-07 2.71009e-07 0.00964628 3876.72 1 1.00037 0.111153
141 1 5.14346e-07 2.7295e-07 0.00988374 3876.81 1 1.00037 0.111153
142 1 3.48905e-07 3.97864e-07 0.0101406 3876.91 1 1.00037 0.111153
143 1 2.02722e-07 2.96944e-07 0.0104456 3877.03 1 1.00037 0.111153
144 1 1.63053e-07 2.29655e-07 0.01071 3877.13 1 1.00037 0.111153
145 1 1.70489e-07 2.25275e-07 0.0110822 3877.28 1 1.00037 0.111153
146 1 1.6201e-07 2.95379e-07 0.0120155 3877.64 1 1.00037 0.111153
147 1 8.76831e-08 3.79947e-07 0.0132949 3878.13 1 1.00037 0.111153
148 1 4.88641e-09 3.2893e-07 0.0136345 3878.26 1 1.00037 0.111153
149 1 0 0 0.0136345 3878.26 1 1.00037 0.111153
0 2 0 0 0.0133538 3878.16 1 1.00044 0.11116
1 2 1.57821e-08 3.40281e-07 0.0133538 3878.16 1 1.00044 0.11116
2 2 4.90056e-08 4.69002e-07 0.0132434 3878.11 1 1.00044 0.11116
3 2 9.30191e-08 4.15082e-07 0.0129797 3878.01 1 1.00044 0.11116
4 2 1.27332e-07 3.65237e-07 0.0130924 3878.05 1 1.00044 0.11116
5 2 1.52012e-07 3.90279e-07 0.0132244 3878.11 1 1.00044 0.11116
6 2 1.72494e-07 4.12627e-07 0.0134072 3878.18 1 1.00044 0.11116
7 2 2.06399e-07 4.32674e-07 0.0136019 3878.25 1 1.00044 0.11116
8 2 2.92701e-07 3.6384e-07 0.0138158 3878.33 1 1.00044 0.11116
9 2 3.89816e-07 3.85942e-07 0.0140369 3878.42 1 1.00044 0.11116
10 2 4.20058e-07 3.72559e-07 0.0142594 3878.51 1 1.00044 0.11116
11 2 3.50611e-07 5.84671e-07 0.0144848 3878.59 1 1.00044 0.11116
12 2 3.07194e-07 5.54297e-07 0.0147116 3878.68 1 1.00044 0.11116
13 2 3.51164e-07 4.92562e-07 0.0149437 3878.77 1 1.00044 0.11116
14 2 3.91834e-07 4.55348e-07 0.0151873 3878.87 1 1.00044 0.11116
15 2 4.16651e-07 4.49796e-07 0.0154466 3878.97 1 1.00044 0.11116
16 2 4.59839e-07 4.49303e-07 0.0157317 3879.08 1 1.00044 0.11116
17 2 5.22424e-07 4.32107e-07 0.0161612 3879.24 1 1.00044 0.11116
18 2 5.95805e-07 3.77502e-07 0.0166495 3879.43 1 1.00044 0.11116
19 2 6.91898e-07 3.13856e-07 0.0171826 3879.64 1 1.00044 0.11116
20 2 8.07014e-07 3.47879e-07 0.0183657 3880.1 1 1.00044 0.11116
21 2 9.10142e-07 4.97745e-07 0.0201107 3880.77 1 1.00044 0.11116
22 2 9.79904e-07 6.67693e-07 0.0220296 3881.52 1 1.00044 0.11116
23 2 1.03211e-06 7.42311e-07 0.023474 3882.07 1 1.00044 0.11116
24 2 1.09201e-06 7.33839e-07 0.0244723 3882.46 1 1.00044 0.11116
25 2 1.16689e-06 7.06792e-07 0.0252763 3882.77 1 1.00044 0.11116
26 2 1.25406e-06 6.86668e-07 0.0258589 3883 1 1.00044 0.11116
27 2 1.3527e-06 6.74992e-07 0.0262989 3883.17 1 1.00044 0.11116
28 2 1.46078e-06 6.68045e-07 0.0266415 3883.3 1 1.00044 0.11116
29 2 1.57501e-06 6.63675e-07 0.0269027 3883.4 1 1.00044 0.11116
30 2 1.69316e-06 6.61047e-07 0.0271093 3883.48 1 1.00044 0.11116
31 2 1.81442e-06 6.5974e-07 0.0272732 3883.55 1 1.00044 0.11116
32 2 1.93805e-06 6.59281e-07 0.0274029 3883.6 1 1.00044 0.11116
33 2 2.06339e-06 6.59285e-07 0.0275043 3883.64 1 1.00044 0.11116
34 2 2.18989e-06 6.59515e-07 0.0275811 3883.67 1 1.00044 0.11116
35 2 2.31723e-06 6.59813e-07 0.0276358 3883.69 1 1.00044 0.11116
36 2 2.44508e-06 6.60079e-07 0.0276699 3883.7 1 1.00044 0.11116
37 2 2.57317e-06 6.60252e-07 0.027684 3883.71 1 1.00044 0.11116
38 2 2.70125e-06 6.60306e-07 0.0276787 3883.7 1 1.00044 0.11116
39 2 2.82908e-06 6.60239e-07 0.0276536 3883.69 1 1.00044 0.11116
40 2 2.95641e-06 6.60068e-07 0.0276082 3883.68 1 1.00044 0.11116
41 2 3.08295e-06 6.5984e-07 0.0275413 3883.65 1 1.00044 0.111161
42 2 3.20841e-06 6.59639e-07 0.0274514 3883.62 1 1.00044 0.111161
43 2 3.33244e-06 6.59599e-07 0.0273356 3883.57 1 1.00043 0.111161
44 2 3.45452e-06 6.59935e-07 0.0271904 3883.51 1 1.00043 0.111161
45 2 3.57399e-06 6.61004e-07 0.0270097 3883.44 1 1.00043 0.111161
46 2 3.69015e-06 6.63266e-07 0.0267856 3883.36 1 1.00043 0.111161
47 2 3.80215e-06 6.67161e-07 0.0265068 3883.25 1 1.00043 0.111161
48 2 3.90786e-06 6.73577e-07 0.0261476 3883.11 1 1.00043 0.111161
49 2 4.00402e-06 6.84654e-07 0.0256931 3882.93 1 1.00043 0.111161
50 2 4.0887e-06 7.04141e-07 0.0250998 3882.7 1 1.00043 0.111161
51 2 4.16073e-06 7.30769e-07 0.0242903 3882.39 1 1.00043 0.111161
52 2 4.21774e-06 7.39539e-07 0.0232921 3882 1 1.00043 0.111161
53 2 4.26731e-06 6.65929e-07 0.0218556 3881.45 1 1.00043 0.111161
54 2 4.33429e-06 4.97501e-07 0.019952 3880.71 1 1.00043 0.111161
55 2 4.43216e-06 3.5018e-07 0.0182223 3880.04 1 1.00043 0.111161
56 2 4.54216e-06 3.1944e-07 0.0170498 3879.59 1 1.00043 0.111161
57 2 4.63893e-06 3.79816e-07 0.0165217 3879.38 1 1.00043 0.111161
58 2 4.71337e-06 4.23685e-07 0.0160375 3879.19 1 1.00043 0.111161
59 2 4.76244e-06 4.44857e-07 0.0156108 3879.03 1 1.00043 0.111161
60 2 4.80504e-06 4.68884e-07 0.0153262 3878.92 1 1.00043 0.111161
61 2 4.89048e-06 4.40517e-07 0.0150659 3878.82 1 1.00043 0.111161
62 2 5.0321e-06 2.43875e-07 0.0148197 3878.72 1 1.00043 0.111161
63 2 5.2434e-06 -2.1891e-07 0.0145825 3878.63 1 1.00043 0.111161
64 2 5.5915e-06 -6.02781e-07 0.0143472 3878.54 1 1.00043 0.111161
65 2 5.9946e-06 -3.263e-07 0.0141086 3878.45 1 1.00043 0.111161
66 2 6.24232e-06 2.33082e-07 0.0138632 3878.35 1 1.00043 0.111161
67 2 6.38381e-06 4.88412e-07 0.0136072 3878.25 1 1.00043 0.111161
68 2 6.45327e-06 4.79241e-07 0.0133332 3878.15 1 1.00043 0.111161
69 2 6.46014e-06 4.36155e-07 0.013031 3878.03 1 1.00043 0.111161
70 2 6.46315e-06 3.96787e-07 0.0126888 3877.9 1 1.00043 0.111161
71 2 6.48901e-06 4.11699e-07 0.0122597 3877.73 1 1.00043 0.111161
72 2 6.50914e-06 4.2861e-07 0.0116908 3877.51 1 1.00043 0.111161
73 2 6.51332e-06 4.37851e-07 0.0109039 3877.21 1 1.00043 0.111161
74 2 6.50099e-06 4.1591e-07 0.00962462 3876.71 1 1.00043 0.111161
75 2 6.47389e-06 3.38864e-07 0.00768331 3875.96 1 1.00042 0.11116
76 2 6.43772e-06 2.66496e-07 0.00584267 3875.25 1 1.00042 0.11116
77 2 6.37085e-06 2.64929e-07 0.00504049 3874.94 1 1.00042 0.11116
78 2 6.27909e-06 2.74833e-07 0.00485165 3874.86 1 1.00042 0.11116
79 2 6.23482e-06 2.43556e-07 0.0047193 3874.81 1 1.00042 0.11116
80 2 6.21398e-06 2.62742e-07 0.00456281 3874.75 1 1.00042 0.11116
81 2 6.01027e-06 2.09816e-07 0.00443761 3874.7 1 1.00042 0.11116
82 2 5.62699e-06 -4.12861e-07 0.00433203 3874.66 1 1.00042 0.11116
83 2 5.60735e-06 -1.19416e-06 0.00422661 3874.62 1 1.00042 0.11116
84 2 5.73906e-06 -6.6529e-07 0.00412529 3874.58 1 1.00042 0.11116
85 2 5.43547e-06 1.57888e-07 0.00402651 3874.54 1 1.00042 0.111159
86 2 5.26039e-06 2.95229e-07 0.00392964 3874.51 1 1.00042 0.111159
87 2 5.27331e-06 3.39863e-07 0.00383446 3874.47 1 1.00041 0.111159
88 2 5.25855e-06 3.45508e-07 0.00374057 3874.43 1 1.00041 0.111159
89 2 5.20832e-06 3.22867e-07 0.00364685 3874.4 1 1.00041 0.111159
90 2 5.13237e-06 3.19446e-07 0.00355157 3874.36 1 1.00041 0.111158
91 2 5.06185e-06 3.25908e-07 0.0034507 3874.32 1 1.00041 0.111158
92 2 4.993e-06 3.24839e-07 0.00332442 3874.27 1 1.00041 0.111158
93 2 4.91872e-06 3.23974e-07 0.00316534 3874.21 1 1.00041 0.111158
94 2 4.84399e-06 3.26886e-07 0.00289244 3874.1 1 1.0004 0.111158
95 2 4.77305e-06 3.27976e-07 0.00246692 3873.94 1 1.0004 0.111157
96 2 4.68902e-06 3.11243e-07 0.00137388 3873.52 1 1.0004 0.111157
97 2 4.57548e-06 2.90477e-07 0 3506.79 0.905448 1.0004 0.111157
98 2 4.45083e-06 2.9628e-07 0 3460.99 0.893623 1.0004 0.111157
99 2 4.33755e-06 3.03629e-07 0 3313.66 0.855583 1.0004 0.111157
100 2 4.23046e-06 3.03391e-07 0 3232.19 0.834549 1.0004 0.111157
101 2 4.12017e-06 3.00708e-07 0 3117.44 0.804918 1.0004 0.111156
102 2 4.00759e-06 2.99597e-07 0 3038.96 0.784656 1.0004 0.111156
103 2 3.89553e-06 2.99363e-07 0 2951.61 0.762102 1.00039 0.111156
104 2 3.78403e-06 2.98795e-07 0 2883.12 0.744419 1.00039 0.111156
105 2 3.67236e-06 2.98008e-07 0 2816.81 0.727298 1.00039 0.111156
106 2 3.56052e-06 2.97329e-07 0 2763.13 0.713437 1.00039 0.111156
107 2 3.44873e-06 2.9675e-07 0 2715.89 0.70124 1.00039 0.111156
108 2 3.33704e-06 2.96183e-07 0 2678.84 0.691674 1.00039 0.111155
109 2 3.22544e-06 2.95631e-07 0 2650.17 0.684271 1.00039 0.111155
110 2 3.11395e-06 2.95117e-07 0 2630.3 0.679139 1.00039 0.111155
111 2 3.0026e-06 2.94641e-07 0 2622.37 0.677093 1.00039 0.111155
112 2 2.89143e-06 2.94198e-07 0 2621.3 0.676816 1.00039 0.111155
113 2 2.78047e-06 2.93784e-07 0 2625.03 0.67778 1.00039 0.111155
114 2 2.66975e-06 2.934e-07 0 2640.09 0.681668 1.00038 0.111155
115 2 2.55929e-06 2.93053e-07 0 2664.57 0.68799 1.00038 0.111155
116 2 2.44915e-06 2.92738e-07 0 2697.87 0.696587 1.00038 0.111154
117 2 2.33935e-06 2.9243e-07 0 2740.56 0.70761 1.00038 0.111154
118 2 2.22987e-06 2.92127e-07 0 2791.13 0.720666 1.00038 0.111154
119 2 2.12077e-06 2.91914e-07 0 2852.16 0.736425 1.00038 0.111154
120 2 2.01226e-06 2.91797e-07 0 2919.01 0.753686 1.00038 0.111154
121 2 1.90438e-06 2.91444e-07 0 2999.08 0.77436 1.00038 0.111154
122 2 1.79637e-06 2.90737e-07 0 3079.73 0.795183 1.00038 0.111154
123 2 1.68828e-06 2.90895e-07 0 3181.23 0.821389 1.00038 0.111154
124 2 1.58296e-06 2.92621e-07 0 3273.46 0.845203 1.00038 0.111154
125 2 1.48134e-06 2.91865e-07 0 3399 0.877617 1.00038 0.111154
126 2 1.37395e-06 2.83415e-07 0 3472.63 0.89663 1.00038 0.111154
127 2 1.25554e-06 2.76475e-07 0 3723.65 0.961441 1.00038 0.111153
128 2 1.14877e-06 2.96351e-07 0.0013893 3873.52 1 1.00038 0.111153
129 2 1.07232e-06 3.12263e-07 0.00249477 3873.95 1 1.00038 0.111153
130 2 1.00986e-06 3.1021e-07 0.00292583 3874.12 1 1.00038 0.111153
131 2 9.4427e-07 3.05886e-07 0.00320267 3874.22 1 1.00038 0.111153
132 2 8.78367e-07 3.04896e-07 0.003364 3874.29 1 1.00038 0.111153
133 2 8.17876e-07 3.05518e-07 0.00349175 3874.34 1 1.00038 0.111153
134 2 7.59707e-07 3.01102e-07 0.00359354 3874.38 1 1.00038 0.111153
135 2 7.00721e-07 3.00372e-07 0.00368946 3874.41 1 1.00038 0.111153
136 2 6.5008e-07 3.02548e-07 0.0037837 3874.45 1 1.00038 0.111153
137 2 6.24045e-07 3.0521e-07 0.00387806 3874.49 1 1.00038 0.111153
138 2 6.09522e-07 2.96056e-07 0.00397367 3874.52 1 1.00038 0.111153
139 2 5.58783e-07 2.42058e-07 0.00407159 3874.56 1 1.00038 0.111153
140 2 5.97928e-07 2.04112e-07 0.00417236 3874.6 1 1.00038 0.111153
141 2 5.50821e-07 5.0256e-07 0.0042732 3874.64 1 1.00038 0.111153
142 2 3.3462e-07 5.51457e-07 0.00439043 3874.68 1 1.00038 0.111153
143 2 2.33099e-07 3.75343e-07 0.0045276 3874.74 1 1.00038 0.111153
144 2 1.89722e-07 2.53635e-07 0.00462701 3874.78 1 1.00038 0.111153
145 2 1.42912e-07 2.44372e-07 0.00478394 3874.84 1 1.00038 0.111153
146 2 9.29008e-08 3.26108e-07 0.0053912 3875.07 1 1.00038 0.111153
147 2 5.80728e-08 4.38888e-07 0.00695075 3875.68 1 1.00038 0.111153
148 2 2.71961e-08 3.53121e-07 0.00789194 3876.04 1 1.00038 0.111153
149 2 0 0 0.00789194 3876.04 1 1.00038 0.111153
0 3 0 0 0.0057555 3875.21 1 1.00044 0.11116
1 3 -4.93697e-08 3.41645e-07 0.0057555 3875.21 1 1.00044 0.11116
2 3 -2.61235e-09 4.01994e-07 0.00561961 3875.16 1 1.00044 0.11116
3 3 6.24015e-08 3.68351e-07 0.00556018 3875.14 1 1.00044 0.11116
4 3 6.58866e-08 3.4713e-07 0.00570206 3875.19 1 1.00044 0.11116
5 3 7.15122e-08 3.55494e-07 0.00573342 3875.2 1 1.00044 0.11116
6 3 1.20284e-07 3.68274e-07 0.00581442 3875.24 1 1.00044 0.11116
7 3 1.92881e-07 3.62389e-07 0.00589181 3875.27 1 1.00044 0.11116
8 3 2.21977e-07 2.97901e-07 0.00598195 3875.3 1 1.00044 0.11116
9 3 3.24955e-07 2.09876e-07 0.00607612 3875.34 1 1.00044 0.11116
10 3 3.4377e-07 5.13851e-07 0.00617171 3875.37 1 1.00044 0.11116
11 3 1.9115e-07 6.3665e-07 0.00626849 3875.41 1 1.00044 0.11116
12 3 1.71973e-07 5.26149e-07 0.00636677 3875.45 1 1.00044 0.11116
13 3 2.3876e-07 4.22432e-07 0.00646775 3875.49 1 1.00044 0.11116
14 3 2.95709e-07 4.15424e-07 0.00657517 3875.53 1 1.00044 0.11116
15 3 3.18155e-07 4.17542e-07 0.00668633 3875.57 1 1.00044 0.11116
16 3 3.31795e-07 4.06789e-07 0.00682289 3875.63 1 1.00044 0.11116
17 3 3.46446e-07 3.85308e-07 0.00702116 3875.7 1 1.00044 0.11116
18 3 3.44318e-07 3.34555e-07 0.00721117 3875.78 1 1.00044 0.11116
19 3 3.19536e-07 2.65644e-07 0.00742337 3875.86 1 1.00044 0.11116
20 3 3.04552e-07 2.76125e-07 0.00839238 3876.23 1 1.00044 0.11116
21 3 3.28898e-07 4.2218e-07 0.0106937 3877.13 1 1.00044 0.11116
22 3 4.05837e-07 5.75542e-07 0.0130699 3878.05 1 1.00044 0.11116
23 3 5.40091e-07 6.26872e-07 0.0145264 3878.61 1 1.00044 0.11116
24 3 7.01e-07 6.07114e-07 0.0153804 3878.94 1 1.00044 0.11116
25 3 8.58782e-07 5.77458e-07 0.0159911 3879.18 1 1.00044 0.11116
26 3 1.00574e-06 5.56689e-07 0.0164158 3879.34 1 1.00044 0.11116
27 3 1.14426e-06 5.42826e-07 0.0167182 3879.46 1 1.00044 0.11116
28 3 1.27768e-06 5.33948e-07 0.0169525 3879.55 1 1.00044 0.11116
29 3 1.40806e-06 5.28419e-07 0.0171317 3879.62 1 1.00044 0.11116
30 3 1.53648e-06 5.24825e-07 0.0172707 3879.67 1 1.00044 0.11116
31 3 1.66388e-06 5.22525e-07 0.0173803 3879.71 1 1.00044 0.11116
32 3 1.79076e-06 5.2122e-07 0.0174664 3879.75 1 1.00044 0.11116
33 3 1.91743e-06 5.20567e-07 0.0175333 3879.77 1 1.00044 0.11116
34 3 2.04407e-06 5.2028e-07 0.0175837 3879.79 1 1.00044 0.11116
35 3 2.17076e-06 5.20201e-07 0.0176195 3879.81 1 1.00044 0.11116
36 3 2.2975e-06 5.20248e-07 0.0176417 3879.82 1 1.00044 0.11116
37 3 2.42425e-06 5.20365e-07 0.0176509 3879.82 1 1.00044 0.111161
38 3 2.55096e-06 5.20522e-07 0.0176474 3879.82 1 1.00044 0.111161
39 3 2.67756e-06 5.20716e-07 0.0176309 3879.81 1 1.00044 0.111161
40 3 2.80399e-06 5.20974e-07 0.0176012 3879.8 1 1.00044 0.111161
41 3 2.9302e-06 5.21343e-07 0.0175572 3879.78 1 1.00044 0.111161
42 3 3.05617e-06 5.21894e-07 0.0174979 3879.76 1 1.00044 0.111161
43 3 3.18196e-06 5.22766e-07 0.0174212 3879.73 1 1.00044 0.111161
44 3 3.30771e-06 5.24221e-07 0.0173244 3879.69 1 1.00044 0.111161
45 3 3.43364e-06 5.26583e-07 0.0172033 3879.65 1 1.00044 0.111161
46 3 3.56023e-06 5.30152e-07 0.0170522 3879.59 1 1.00044 0.111161
47 3 3.68828e-06 5.35569e-07 0.0168609 3879.51 1 1.00044 0.111161
48 3 3.81891e-06 5.44245e-07 0.0166151 3879.42 1 1.00044 0.111161
49 3 3.95407e-06 5.57833e-07 0.0163028 3879.3 1 1.00044 0.111161
50 3 4.09708e-06 5.78421e-07 0.0158712 3879.13 1 1.00044 0.111161
51 3 4.25023e-06 6.08002e-07 0.0152574 3878.89 1 1.00043 0.111161