Title="LBM for phase change with fin"
dt=1 dx=1
VARIABLES="X","Y","U","V","T","H","fl","pa","Test"
ZONE T="BOX",I=150,J=150,F=POINT
0 0 0 0 0.470297 4055.13 1 1.17206 0.130229
1 0 0 0 0.47715 4057.78 1 1.17206 0.130229
2 0 0 0 0.477506 4057.92 1 1.17205 0.130227
3 0 0 0 0.477191 4057.8 1 1.17205 0.130227
4 0 0 0 0.476917 4057.69 1 1.17205 0.130226
5 0 0 0 0.476599 4057.57 1 1.17205 0.130225
6 0 0 0 0.476132 4057.39 1 1.17205 0.130225
7 0 0 0 0.475484 4057.14 1 1.17204 0.130224
8 0 0 0 0.474633 4056.81 1 1.17204 0.130224
9 0 0 0 0.473561 4056.39 1 1.17204 0.130223
10 0 0 0 0.472257 4055.89 1 1.17204 0.130223
11 0 0 0 0.470715 4055.29 1 1.17204 0.130223
12 0 0 0 0.468933 4054.6 1 1.17204 0.130223
13 0 0 0 0.466912 4053.82 1 1.17205 0.130223
14 0 0 0 0.464657 4052.94 1 1.17205 0.130224
15 0 0 0 0.462175 4051.98 1 1.17205 0.130224
16 0 0 0 0.459476 4050.94 1 1.17206 0.130225
17 0 0 0 0.456572 4049.81 1 1.17206 0.130225
18 0 0 0 0.453477 4048.61 1 1.17206 0.130226
19 0 0 0 0.450207 4047.35 1 1.17207 0.130226
20 0 0 0 0.446776 4046.02 1 1.17207 0.130227
21 0 0 0 0.443201 4044.63 1 1.17208 0.130228
22 0 0 0 0.439498 4043.2 1 1.17208 0.130228
23 0 0 0 0.435685 4041.72 1 1.17209 0.130229
24 0 0 0 0.431776 4040.21 1 1.1721 0.13023
25 0 0 0 0.427787 4038.66 1 1.1721 0.130231
26 0 0 0 0.423732 4037.09 1 1.17211 0.130232
27 0 0 0 0.419625 4035.5 1 1.17211 0.130233
28 0 0 0 0.415478 4033.9 1 1.17212 0.130234
29 0 0 0 0.411301 4032.28 1 1.17213 0.130234
30 0 0 0 0.407105 4030.65 1 1.17214 0.130235
31 0 0 0 0.402899 4029.03 1 1.17214 0.130236
32 0 0 0 0.398689 4027.39 1 1.17215 0.130237
33 0 0 0 0.394482 4025.77 1 1.17216 0.130238
34 0 0 0 0.390284 4024.14 1 1.17216 0.130239
35 0 0 0 0.386099 4022.52 1 1.17217 0.13024
36 0 0 0 0.38193 4020.9 1 1.17218 0.130241
37 0 0 0 0.37778 4019.3 1 1.17218 0.130242
38 0 0 0 0.373651 4017.7 1 1.17219 0.130242
39 0 0 0 0.369544 4016.11 1 1.1722 0.130243
40 0 0 0 0.365461 4014.53 1 1.17221 0.130244
41 0 0 0 0.361402 4012.95 1 1.17221 0.130245
42 0 0 0 0.357366 4011.39 1 1.17222 0.130246
43 0 0 0 0.353355 4009.84 1 1.17223 0.130247
44 0 0 0 0.349367 4008.29 1 1.17224 0.130248
45 0 0 0 0.345403 4006.76 1 1.17224 0.130249
46 0 0 0 0.341462 4005.23 1 1.17225 0.13025
47 0 0 0 0.337544 4003.71 1 1.17226 0.13025
48 0 0 0 0.333648 4002.2 1 1.17227 0.130251
49 0 0 0 0.329774 4000.7 1 1.17227 0.130252
50 0 0 0 0.325923 3999.21 1 1.17228 0.130253
51 0 0 0 0.322093 3997.73 1 1.17229 0.130254
52 0 0 0 0.318286 3996.25 1 1.1723 0.130255
53 0 0 0 0.314501 3994.79 1 1.17231 0.130256
54 0 0 0 0.310739 3993.33 1 1.17231 0.130257
55 0 0 0 0.307001 3991.88 1 1.17232 0.130258
56 0 0 0 0.303286 3990.45 1 1.17233 0.130259
57 0 0 0 0.299597 3989.02 1 1.17234 0.13026
58 0 0 0 0.295934 3987.6 1 1.17235 0.130261
59 0 0 0 0.292299 3986.19 1 1.17235 0.130261
60 0 0 0 0.288692 3984.79 1 1.17236 0.130262
61 0 0 0 0.285115 3983.41 1 1.17237 0.130263
62 0 0 0 0.28157 3982.03 1 1.17238 0.130264
63 0 0 0 0.278058 3980.67 1 1.17239 0.130265
64 0 0 0 0.274582 3979.33 1 1.17239 0.130266
65 0 0 0 0.271142 3978 1 1.1724 0.130267
66 0 0 0 0.267742 3976.68 1 1.17241 0.130268
67 0 0 0 0.264382 3975.38 1 1.17242 0.130269
68 0 0 0 0.261066 3974.09 1 1.17243 0.13027
69 0 0 0 0.257795 3972.83 1 1.17244 0.130271
70 0 0 0 0.254571 3971.58 1 1.17244 0.130272
71 0 0 0 0.251396 3970.35 1 1.17245 0.130273
72 0 0 0 0.248273 3969.14 1 1.17246 0.130274
73 0 0 0 0.245203 3967.95 1 1.17247 0.130275
74 0 0 0 0.24219 3966.78 1 1.17248 0.130276
75 0 0 0 0.239234 3965.64 1 1.17249 0.130277
76 0 0 0 0.236339 3964.52 1 1.17249 0.130278
77 0 0 0 0.233506 3963.42 1 1.1725 0.130279
78 0 0 0 0.230737 3962.35 1 1.17251 0.13028
79 0 0 0 0.228035 3961.3 1 1.17252 0.130281
80 0 0 0 0.225402 3960.28 1 1.17253 0.130282
81 0 0 0 0.222839 3959.29 1 1.17254 0.130283
82 0 0 0 0.220349 3958.32 1 1.17254 0.130284
83 0 0 0 0.217933 3957.39 1 1.17255 0.130285
84 0 0 0 0.215594 3956.48 1 1.17256 0.130286
85 0 0 0 0.213332 3955.61 1 1.17257 0.130287
86 0 0 0 0.211151 3954.76 1 1.17257 0.130288
87 0 0 0 0.209052 3953.95 1 1.17258 0.130289
88 0 0 0 0.207036 3953.17 1 1.17259 0.13029
89 0 0 0 0.205105 3952.42 1 1.1726 0.130291
90 0 0 0 0.20326 3951.71 1 1.1726 0.130292
91 0 0 0 0.201504 3951.03 1 1.17261 0.130292
92 0 0 0 0.199837 3950.38 1 1.17262 0.130293
93 0 0 0 0.198261 3949.77 1 1.17262 0.130294
94 0 0 0 0.196777 3949.19 1 1.17263 0.130295
95 0 0 0 0.195387 3948.66 1 1.17263 0.130295
96 0 0 0 0.194091 3948.15 1 1.17264 0.130296
97 0 0 0 0.192891 3947.69 1 1.17265 0.130297
98 0 0 0 0.191787 3947.26 1 1.17265 0.130297
99 0 0 0 0.190781 3946.87 1 1.17266 0.130298
100 0 0 0 0.189874 3946.52 1 1.17266 0.130299
101 0 0 0 0.189065 3946.21 1 1.17267 0.130299
102 0 0 0 0.188356 3945.93 1 1.17267 0.1303
103 0 0 0 0.187747 3945.7 1 1.17267 0.1303
104 0 0 0 0.187239 3945.5 1 1.17268 0.1303
105 0 0 0 0.186832 3945.34 1 1.17268 0.130301
106 0 0 0 0.186526 3945.22 1 1.17269 0.130301
107 0 0 0 0.186321 3945.15 1 1.17269 0.130302
108 0 0 0 0.186217 3945.11 1 1.17269 0.130302
109 0 0 0 0.186215 3945.1 1 1.17269 0.130302
110 0 0 0 0.186312 3945.14 1 1.1727 0.130302
111 0 0 0 0.18651 3945.22 1 1.1727 0.130303
112 0 0 0 0.186807 3945.33 1 1.1727 0.130303
113 0 0 0 0.187202 3945.49 1 1.1727 0.130303
114 0 0 0 0.187694 3945.68 1 1.1727 0.130303
115 0 0 0 0.188283 3945.9 1 1.17271 0.130303
116 0 0 0 0.188965 3946.17 1 1.17271 0.130303
117 0 0 0 0.189741 3946.47 1 1.17271 0.130303
118 0 0 0 0.190607 3946.81 1 1.17271 0.130303
119 0 0 0 0.191561 3947.17 1 1.17271 0.130303
120 0 0 0 0.192601 3947.58 1 1.17271 0.130303
121 0 0 0 0.193725 3948.01 1 1.17271 0.130303
122 0 0 0 0.194927 3948.48 1 1.17271 0.130303
123 0 0 0 0.196207 3948.97 1 1.17271 0.130303
124 0 0 0 0.197558 3949.5 1 1.17271 0.130302
125 0 0 0 0.198978 3950.05 1 1.17271 0.130302
126 0 0 0 0.200461 3950.62 1 1.1727 0.130302
127 0 0 0 0.202003 3951.22 1 1.1727 0.130302
128 0 0 0 0.203599 3951.84 1 1.1727 0.130302
129 0 0 0 0.205242 3952.47 1 1.1727 0.130301
130 0 0 0 0.206926 3953.13 1 1.1727 0.130301
131 0 0 0 0.208644 3953.79 1 1.1727 0.130301
132 0 0 0 0.210389 3954.47 1 1.1727 0.1303
133 0 0 0 0.212154 3955.15 1 1.17269 0.1303
134 0 0 0 0.21393 3955.84 1 1.17269 0.1303
135 0 0 0 0.215708 3956.53 1 1.17269 0.1303
136 0 0 0 0.217479 3957.21 1 1.17269 0.130299
137 0 0 0 0.219234 3957.89 1 1.17269 0.130299
138 0 0 0 0.220961 3958.56 1 1.17269 0.130299
139 0 0 0 0.22265 3959.22 1 1.17269 0.130298
140 0 0 0 0.224288 3959.85 1 1.17268 0.130298
141 0 0 0 0.225865 3960.46 1 1.17268 0.130298
142 0 0 0 0.227367 3961.04 1 1.17268 0.130298
143 0 0 0 0.228782 3961.59 1 1.17268 0.130298
144 0 0 0 0.230097 3962.1 1 1.17268 0.130297
145 0 0 0 0.231298 3962.56 1 1.17268 0.130297
146 0 0 0 0.232434 3963 1 1.17268 0.130297
147 0 0 0 0.233521 3963.43 1 1.17268 0.130297
148 0 0 0 0.233713 3963.5 1 1.17268 0.130298
149 0 0 0 0.227143 3960.96 1 1.17268 0.130298
0 1 0 0 0.470297 4055.13 1 1.17206 0.130229
1 1 2.02432e-06 9.63414e-06 0.470297 4055.13 1 1.17206 0.130229
2 1 5.88925e-07 1.34694e-05 0.470512 4055.21 1 1.17205 0.130228
3 1 -5.01765e-06 1.6366e-05 0.470056 4055.04 1 1.17205 0.130225
4 1 -1.40177e-05 1.89286e-05 0.469642 4054.87 1 1.17205 0.130221
5 1 -2.65026e-05 2.18138e-05 0.469186 4054.7 1 1.17205 0.130215
6 1 -4.24343e-05 2.43886e-05 0.468581 4054.46 1 1.17205 0.130208
7 1 -6.13246e-05 2.65122e-05 0.467797 4054.16 1 1.17204 0.1302
8 1 -8.26608e-05 2.82482e-05 0.466811 4053.78 1 1.17204 0.130191
9 1 -0.000105985 2.96319e-05 0.465606 4053.31 1 1.17204 0.130182
10 1 -0.000130865 3.06714e-05 0.464172 4052.76 1 1.17204 0.130172
11 1 -0.000156887 3.13864e-05 0.462502 4052.11 1 1.17204 0.130162
12 1 -0.000183676 3.18172e-05 0.460595 4051.37 1 1.17204 0.130151
13 1 -0.0002109 3.19938e-05 0.458452 4050.54 1 1.17205 0.130141
14 1 -0.000238267 3.19484e-05 0.456077 4049.62 1 1.17205 0.130131
15 1 -0.000265524 3.17107e-05 0.453479 4048.62 1 1.17205 0.13012
16 1 -0.000292455 3.13111e-05 0.450668 4047.53 1 1.17206 0.13011
17 1 -0.000318878 3.07759e-05 0.447656 4046.36 1 1.17206 0.1301
18 1 -0.000344646 3.01307e-05 0.444457 4045.12 1 1.17206 0.130091
19 1 -0.000369639 2.93983e-05 0.441085 4043.81 1 1.17207 0.130082
20 1 -0.000393767 2.85999e-05 0.437558 4042.45 1 1.17207 0.130073
21 1 -0.000416963 2.77542e-05 0.433891 4041.03 1 1.17208 0.130065
22 1 -0.000439182 2.68779e-05 0.430102 4039.56 1 1.17208 0.130057
23 1 -0.000460397 2.59858e-05 0.426206 4038.05 1 1.17209 0.13005
24 1 -0.000480601 2.50906e-05 0.422219 4036.51 1 1.1721 0.130042
25 1 -0.000499798 2.42031e-05 0.418158 4034.94 1 1.1721 0.130036
26 1 -0.000518006 2.33322e-05 0.414036 4033.34 1 1.17211 0.13003
27 1 -0.000535252 2.24854e-05 0.409867 4031.72 1 1.17211 0.130024
28 1 -0.000551571 2.16683e-05 0.405663 4030.1 1 1.17212 0.130018
29 1 -0.000567005 2.08852e-05 0.401435 4028.46 1 1.17213 0.130013
30 1 -0.000581598 2.01392e-05 0.397194 4026.82 1 1.17214 0.130008
31 1 -0.000595399 1.94321e-05 0.392947 4025.17 1 1.17214 0.130004
32 1 -0.000608457 1.87646e-05 0.388704 4023.53 1 1.17215 0.13
33 1 -0.000620822 1.81367e-05 0.384469 4021.89 1 1.17216 0.129996
34 1 -0.000632542 1.75474e-05 0.380249 4020.25 1 1.17216 0.129992
35 1 -0.000643664 1.69954e-05 0.376047 4018.63 1 1.17217 0.129989
36 1 -0.000654234 1.64786e-05 0.371868 4017.01 1 1.17218 0.129985
37 1 -0.000664293 1.59946e-05 0.367713 4015.4 1 1.17219 0.129982
38 1 -0.000673879 1.55407e-05 0.363586 4013.8 1 1.17219 0.129979
39 1 -0.000683029 1.51142e-05 0.359486 4012.21 1 1.1722 0.129977
40 1 -0.000691773 1.47119e-05 0.355417 4010.64 1 1.17221 0.129974
41 1 -0.000700139 1.43309e-05 0.351376 4009.07 1 1.17221 0.129972
42 1 -0.000708151 1.39682e-05 0.347366 4007.52 1 1.17222 0.129969
43 1 -0.000715828 1.36207e-05 0.343386 4005.98 1 1.17223 0.129967
44 1 -0.000723189 1.32857e-05 0.339435 4004.45 1 1.17224 0.129965
45 1 -0.000730244 1.29605e-05 0.335514 4002.93 1 1.17224 0.129963
46 1 -0.000737005 1.26424e-05 0.331621 4001.42 1 1.17225 0.129962
47 1 -0.000743478 1.23291e-05 0.327756 3999.92 1 1.17226 0.12996
48 1 -0.000749666 1.20184e-05 0.32392 3998.44 1 1.17227 0.129959
49 1 -0.000755572 1.17083e-05 0.320111 3996.96 1 1.17227 0.129957
50 1 -0.000761193 1.13969e-05 0.316329 3995.5 1 1.17228 0.129956
51 1 -0.000766526 1.10828e-05 0.312575 3994.04 1 1.17229 0.129955
52 1 -0.000771567 1.07643e-05 0.308847 3992.6 1 1.1723 0.129954
53 1 -0.000776307 1.04402e-05 0.305147 3991.17 1 1.17231 0.129953
54 1 -0.00078074 1.01094e-05 0.301475 3989.74 1 1.17231 0.129952
55 1 -0.000784854 9.77096e-06 0.297831 3988.33 1 1.17232 0.129951
56 1 -0.000788639 9.42408e-06 0.294215 3986.93 1 1.17233 0.129951
57 1 -0.000792083 9.06807e-06 0.290628 3985.54 1 1.17234 0.12995
58 1 -0.000795174 8.70241e-06 0.287072 3984.17 1 1.17235 0.12995
59 1 -0.000797897 8.32669e-06 0.283547 3982.8 1 1.17235 0.12995
60 1 -0.000800241 7.9406e-06 0.280054 3981.45 1 1.17236 0.12995
61 1 -0.00080219 7.54397e-06 0.276595 3980.11 1 1.17237 0.12995
62 1 -0.000803731 7.13671e-06 0.27317 3978.78 1 1.17238 0.129951
63 1 -0.000804849 6.71885e-06 0.269782 3977.47 1 1.17239 0.129951
64 1 -0.00080553 6.2905e-06 0.266432 3976.17 1 1.17239 0.129952
65 1 -0.00080576 5.85185e-06 0.263122 3974.89 1 1.1724 0.129953
66 1 -0.000805526 5.40322e-06 0.259853 3973.62 1 1.17241 0.129954
67 1 -0.000804814 4.94496e-06 0.256627 3972.37 1 1.17242 0.129955
68 1 -0.00080361 4.47754e-06 0.253446 3971.14 1 1.17243 0.129957
69 1 -0.000801904 4.00148e-06 0.250312 3969.93 1 1.17244 0.129958
70 1 -0.000799682 3.51739e-06 0.247226 3968.73 1 1.17244 0.12996
71 1 -0.000796934 3.02593e-06 0.244191 3967.56 1 1.17245 0.129962
72 1 -0.00079365 2.52785e-06 0.241208 3966.4 1 1.17246 0.129964
73 1 -0.000789819 2.02395e-06 0.23828 3965.27 1 1.17247 0.129967
74 1 -0.000785434 1.51509e-06 0.235408 3964.16 1 1.17248 0.12997
75 1 -0.000780488 1.0022e-06 0.232594 3963.07 1 1.17249 0.129973
76 1 -0.000774973 4.86257e-07 0.22984 3962 1 1.17249 0.129976
77 1 -0.000768886 -3.16938e-08 0.227148 3960.96 1 1.1725 0.129979
78 1 -0.000762221 -5.5056e-07 0.22452 3959.94 1 1.17251 0.129983
79 1 -0.000754978 -1.06919e-06 0.221957 3958.95 1 1.17252 0.129987
80 1 -0.000747155 -1.58639e-06 0.219462 3957.98 1 1.17253 0.129991
81 1 -0.000738752 -2.10091e-06 0.217036 3957.04 1 1.17254 0.129995
82 1 -0.000729773 -2.61145e-06 0.214681 3956.13 1 1.17254 0.129999
83 1 -0.00072022 -3.11668e-06 0.212399 3955.25 1 1.17255 0.130004
84 1 -0.000710099 -3.6152e-06 0.210191 3954.39 1 1.17256 0.130009
85 1 -0.000699419 -4.10562e-06 0.208059 3953.56 1 1.17257 0.130014
86 1 -0.000688186 -4.5865e-06 0.206004 3952.77 1 1.17257 0.130019
87 1 -0.000676413 -5.05638e-06 0.204028 3952 1 1.17258 0.130025
88 1 -0.000664112 -5.51378e-06 0.202133 3951.27 1 1.17259 0.13003
89 1 -0.000651296 -5.95725e-06 0.20032 3950.57 1 1.1726 0.130036
90 1 -0.000637982 -6.38531e-06 0.198589 3949.9 1 1.1726 0.130042
91 1 -0.000624188 -6.79651e-06 0.196943 3949.26 1 1.17261 0.130048
92 1 -0.000609932 -7.18944e-06 0.195383 3948.65 1 1.17262 0.130055
93 1 -0.000595237 -7.5627e-06 0.19391 3948.08 1 1.17262 0.130061
94 1 -0.000580125 -7.91496e-06 0.192525 3947.55 1 1.17263 0.130068
95 1 -0.00056462 -8.24492e-06 0.191228 3947.05 1 1.17263 0.130075
96 1 -0.000548748 -8.55136e-06 0.190022 3946.58 1 1.17264 0.130082
97 1 -0.000532538 -8.83311e-06 0.188907 3946.15 1 1.17265 0.130089
98 1 -0.000516017 -9.0891e-06 0.187883 3945.75 1 1.17265 0.130096
99 1 -0.000499216 -9.3183e-06 0.186952 3945.39 1 1.17266 0.130103
100 1 -0.000482168 -9.5198e-06 0.186114 3945.07 1 1.17266 0.13011
101 1 -0.000464904 -9.69276e-06 0.18537 3944.78 1 1.17267 0.130117
102 1 -0.000447459 -9.83642e-06 0.184721 3944.53 1 1.17267 0.130125
103 1 -0.000429868 -9.95011e-06 0.184166 3944.31 1 1.17267 0.130132
104 1 -0.000412166 -1.00333e-05 0.183706 3944.13 1 1.17268 0.130139
105 1 -0.00039439 -1.00854e-05 0.183341 3943.99 1 1.17268 0.130147
106 1 -0.000376576 -1.01062e-05 0.183072 3943.89 1 1.17269 0.130154
107 1 -0.000358762 -1.00953e-05 0.182898 3943.82 1 1.17269 0.130161
108 1 -0.000340987 -1.00525e-05 0.18282 3943.79 1 1.17269 0.130169
109 1 -0.000323287 -9.97767e-06 0.182836 3943.8 1 1.17269 0.130176
110 1 -0.000305701 -9.87091e-06 0.182947 3943.84 1 1.1727 0.130183
111 1 -0.000288267 -9.73227e-06 0.183153 3943.92 1 1.1727 0.13019
112 1 -0.000271022 -9.56195e-06 0.183451 3944.03 1 1.1727 0.130197
113 1 -0.000254003 -9.36024e-06 0.183842 3944.18 1 1.1727 0.130204
114 1 -0.000237248 -9.12753e-06 0.184324 3944.37 1 1.1727 0.13021
115 1 -0.000220792 -8.8643e-06 0.184896 3944.59 1 1.17271 0.130217
116 1 -0.000204671 -8.57113e-06 0.185556 3944.85 1 1.17271 0.130223
117 1 -0.000188919 -8.24868e-06 0.186303 3945.14 1 1.17271 0.130229
118 1 -0.000173571 -7.89768e-06 0.187135 3945.46 1 1.17271 0.130235
119 1 -0.00015866 -7.51895e-06 0.18805 3945.81 1 1.17271 0.130241
120 1 -0.000144216 -7.1134e-06 0.189045 3946.2 1 1.17271 0.130247
121 1 -0.000130271 -6.68198e-06 0.190117 3946.62 1 1.17271 0.130252
122 1 -0.000116855 -6.22572e-06 0.191263 3947.06 1 1.17271 0.130257
123 1 -0.000103996 -5.74571e-06 0.19248 3947.53 1 1.17271 0.130262
124 1 -9.17197e-05 -5.2431e-06 0.193765 3948.03 1 1.17271 0.130267
125 1 -8.00532e-05 -4.7191e-06 0.195112 3948.55 1 1.17271 0.130271
126 1 -6.90201e-05 -4.17497e-06 0.196518 3949.09 1 1.1727 0.130275
127 1 -5.86433e-05 -3.61205e-06 0.197977 3949.66 1 1.1727 0.130279
128 1 -4.89438e-05 -3.03174e-06 0.199486 3950.24 1 1.1727 0.130282
129 1 -3.99412e-05 -2.43556e-06 0.201037 3950.84 1 1.1727 0.130286
130 1 -3.1653e-05 -1.82508e-06 0.202624 3951.46 1 1.1727 0.130289
131 1 -2.4095e-05 -1.20205e-06 0.204242 3952.09 1 1.1727 0.130291
132 1 -1.72811e-05 -5.68339e-07 0.205883 3952.72 1 1.1727 0.130294
133 1 -1.12224e-05 7.38475e-08 0.207539 3953.36 1 1.17269 0.130296
134 1 -5.92783e-06 7.22221e-07 0.209202 3954.01 1 1.17269 0.130298
135 1 -1.40312e-06 1.37396e-06 0.210865 3954.65 1 1.17269 0.130299
136 1 2.34956e-06 2.0257e-06 0.212517 3955.29 1 1.17269 0.1303
137 1 5.33257e-06 2.67301e-06 0.214149 3955.92 1 1.17269 0.130301
138 1 7.55341e-06 3.31209e-06 0.215751 3956.54 1 1.17269 0.130302
139 1 9.02591e-06 3.93551e-06 0.217312 3957.15 1 1.17269 0.130302
140 1 9.7742e-06 4.5342e-06 0.21882 3957.73 1 1.17268 0.130302
141 1 9.83444e-06 5.09703e-06 0.220265 3958.29 1 1.17268 0.130302
142 1 9.25189e-06 5.62334e-06 0.221632 3958.82 1 1.17268 0.130301
143 1 8.09476e-06 6.06806e-06 0.222911 3959.32 1 1.17268 0.130301
144 1 6.49166e-06 6.38543e-06 0.224088 3959.77 1 1.17268 0.1303
145 1 4.60403e-06 6.56982e-06 0.22515 3960.18 1 1.17268 0.130299
146 1 2.50013e-06 6.81998e-06 0.226146 3960.57 1 1.17268 0.130298
147 1 3.95246e-07 6.56004e-06 0.227093 3960.94 1 1.17268 0.130298
148 1 -6.04149e-07 4.99783e-06 0.227143 3960.96 1 1.17268 0.130298
149 1 0 0 0.227143 3960.96 1 1.17268 0.130298
0 2 0 0 0.463609 4052.54 1 1.17209 0.130232
1 2 -1.13044e-06 9.24393e-06 0.463609 4052.54 1 1.17209 0.130232
2 2 -5.07727e-06 1.85318e-05 0.463389 4052.45 1 1.17209 0.130229
3 2 -1.54533e-05 2.69904e-05 0.462823 4052.23 1 1.17209 0.130224
4 2 -3.34424e-05 3.50711e-05 0.462433 4052.08 1 1.17209 0.130216
5 2 -5.83157e-05 4.29711e-05 0.461867 4051.86 1 1.17209 0.130205
6 2 -8.92046e-05 5.00659e-05 0.461149 4051.59 1 1.17208 0.130192
7 2 -0.000125469 5.61073e-05 0.460245 4051.24 1 1.17208 0.130177
8 2 -0.000166383 6.11068e-05 0.459135 4050.81 1 1.17208 0.13016
9 2 -0.000211085 6.50815e-05 0.457806 4050.29 1 1.17208 0.130142
10 2 -0.000258746 6.80982e-05 0.456246 4049.69 1 1.17208 0.130123
11 2 -0.000308615 7.0225e-05 0.454451 4048.99 1 1.17208 0.130103
12 2 -0.000360004 7.15568e-05 0.45242 4048.2 1 1.17208 0.130083
13 2 -0.000412286 7.2177e-05 0.450153 4047.33 1 1.17209 0.130063
14 2 -0.00046491 7.21769e-05 0.447657 4046.36 1 1.17209 0.130043
15 2 -0.000517394 7.16406e-05 0.44494 4045.31 1 1.17209 0.130023
16 2 -0.000569325 7.06507e-05 0.442011 4044.17 1 1.17209 0.130003
17 2 -0.000620355 6.92823e-05 0.438885 4042.96 1 1.1721 0.129983
18 2 -0.000670195 6.76063e-05 0.435574 4041.68 1 1.1721 0.129965
19 2 -0.000718613 6.56872e-05 0.432095 4040.33 1 1.17211 0.129946
20 2 -0.00076543 6.3584e-05 0.428464 4038.93 1 1.17211 0.129929
21 2 -0.000810511 6.13491e-05 0.424698 4037.47 1 1.17211 0.129912
22 2 -0.000853763 5.90297e-05 0.420814 4035.96 1 1.17212 0.129896
23 2 -0.000895131 5.66667e-05 0.416828 4034.42 1 1.17213 0.129881
24 2 -0.00093459 5.42958e-05 0.412757 4032.84 1 1.17213 0.129866
25 2 -0.000972144 5.19471e-05 0.408617 4031.24 1 1.17214 0.129853
26 2 -0.00100782 4.96459e-05 0.404421 4029.62 1 1.17214 0.12984
27 2 -0.00104167 4.74125e-05 0.400185 4027.97 1 1.17215 0.129827
28 2 -0.00107374 4.5263e-05 0.395919 4026.32 1 1.17216 0.129816
29 2 -0.00110412 4.32092e-05 0.391636 4024.66 1 1.17216 0.129805
30 2 -0.00113289 4.12595e-05 0.387345 4023 1 1.17217 0.129795
31 2 -0.00116012 3.94189e-05 0.383055 4021.34 1 1.17217 0.129785
32 2 -0.00118592 3.76894e-05 0.378774 4019.68 1 1.17218 0.129776
33 2 -0.00121038 3.60706e-05 0.374509 4018.03 1 1.17219 0.129767
34 2 -0.00123358 3.45602e-05 0.370264 4016.39 1 1.17219 0.129759
35 2 -0.00125561 3.31537e-05 0.366045 4014.75 1 1.1722 0.129752
36 2 -0.00127656 3.18457e-05 0.361854 4013.13 1 1.17221 0.129744
37 2 -0.00129651 3.06292e-05 0.357694 4011.52 1 1.17221 0.129738
38 2 -0.00131552 2.94968e-05 0.353567 4009.92 1 1.17222 0.129731
39 2 -0.00133366 2.84404e-05 0.349475 4008.33 1 1.17223 0.129725
40 2 -0.001351 2.74516e-05 0.345419 4006.76 1 1.17224 0.129719
41 2 -0.00136758 2.65217e-05 0.341398 4005.21 1 1.17224 0.129713
42 2 -0.00138346 2.56425e-05 0.337413 4003.66 1 1.17225 0.129708
43 2 -0.00139866 2.48054e-05 0.333464 4002.13 1 1.17226 0.129703
44 2 -0.00141322 2.40026e-05 0.32955 4000.62 1 1.17226 0.129698
45 2 -0.00142717 2.32263e-05 0.325672 3999.12 1 1.17227 0.129694
46 2 -0.00144052 2.24694e-05 0.321827 3997.63 1 1.17228 0.129689
47 2 -0.00145328 2.17251e-05 0.318017 3996.15 1 1.17229 0.129685
48 2 -0.00146548 2.09873e-05 0.31424 3994.69 1 1.17229 0.129681
49 2 -0.0014771 2.02503e-05 0.310496 3993.24 1 1.1723 0.129678
50 2 -0.00148814 1.95089e-05 0.306784 3991.8 1 1.17231 0.129674
51 2 -0.00149861 1.87585e-05 0.303104 3990.38 1 1.17231 0.129671
52 2 -0.00150849 1.7995e-05 0.299457 3988.96 1 1.17232 0.129668
53 2 -0.00151777 1.72147e-05 0.295841 3987.56 1 1.17233 0.129666
54 2 -0.00152642 1.64145e-05 0.292258 3986.17 1 1.17234 0.129663
55 2 -0.00153445 1.55915e-05 0.288707 3984.8 1 1.17234 0.129661
56 2 -0.00154181 1.47436e-05 0.285189 3983.44 1 1.17235 0.129659
57 2 -0.0015485 1.38688e-05 0.281704 3982.09 1 1.17236 0.129657
58 2 -0.00155448 1.29655e-05 0.278254 3980.75 1 1.17237 0.129656
59 2 -0.00155974 1.20326e-05 0.274838 3979.43 1 1.17238 0.129655
60 2 -0.00156425 1.1069e-05 0.271458 3978.12 1 1.17238 0.129654
61 2 -0.00156798 1.00743e-05 0.268115 3976.82 1 1.17239 0.129654
62 2 -0.0015709 9.04824e-06 0.26481 3975.54 1 1.1724 0.129654
63 2 -0.00157299 7.9907e-06 0.261544 3974.28 1 1.17241 0.129654
64 2 -0.00157422 6.90198e-06 0.258319 3973.03 1 1.17242 0.129654
65 2 -0.00157457 5.78259e-06 0.255136 3971.8 1 1.17242 0.129655
66 2 -0.001574 4.63328e-06 0.251997 3970.58 1 1.17243 0.129656
67 2 -0.0015725 3.45504e-06 0.248903 3969.38 1 1.17244 0.129658
68 2 -0.00157004 2.24905e-06 0.245855 3968.2 1 1.17245 0.12966
69 2 -0.0015666 1.01674e-06 0.242856 3967.04 1 1.17246 0.129662
70 2 -0.00156215 -2.40262e-07 0.239906 3965.9 1 1.17246 0.129665
71 2 -0.00155667 -1.52014e-06 0.237008 3964.78 1 1.17247 0.129668
72 2 -0.00155015 -2.82086e-06 0.234163 3963.67 1 1.17248 0.129672
73 2 -0.00154256 -4.14023e-06 0.231374 3962.59 1 1.17249 0.129676
74 2 -0.00153389 -5.47586e-06 0.22864 3961.54 1 1.1725 0.12968
75 2 -0.00152414 -6.82517e-06 0.225965 3960.5 1 1.1725 0.129685
76 2 -0.00151328 -8.18542e-06 0.22335 3959.49 1 1.17251 0.129691
77 2 -0.00150131 -9.55371e-06 0.220797 3958.5 1 1.17252 0.129696
78 2 -0.00148822 -1.0927e-05 0.218307 3957.53 1 1.17253 0.129702
79 2 -0.00147401 -1.2302e-05 0.215881 3956.59 1 1.17254 0.129709
80 2 -0.00145867 -1.36753e-05 0.213522 3955.68 1 1.17254 0.129716
81 2 -0.00144222 -1.50436e-05 0.21123 3954.79 1 1.17255 0.129723
82 2 -0.00142465 -1.64031e-05 0.209008 3953.93 1 1.17256 0.129731
83 2 -0.00140597 -1.77501e-05 0.206857 3953.1 1 1.17257 0.12974
84 2 -0.0013862 -1.90807e-05 0.204778 3952.29 1 1.17257 0.129748
85 2 -0.00136535 -2.03911e-05 0.202772 3951.52 1 1.17258 0.129757
86 2 -0.00134343 -2.16771e-05 0.200841 3950.77 1 1.17259 0.129767
87 2 -0.00132047 -2.29348e-05 0.198987 3950.05 1 1.1726 0.129777
88 2 -0.0012965 -2.41601e-05 0.19721 3949.36 1 1.1726 0.129787
89 2 -0.00127153 -2.53489e-05 0.195512 3948.7 1 1.17261 0.129798
90 2 -0.00124561 -2.64971e-05 0.193893 3948.08 1 1.17262 0.129809
91 2 -0.00121877 -2.76007e-05 0.192355 3947.48 1 1.17262 0.12982
92 2 -0.00119104 -2.86558e-05 0.1909 3946.92 1 1.17263 0.129832
93 2 -0.00116247 -2.96584e-05 0.189527 3946.39 1 1.17264 0.129844
94 2 -0.00113309 -3.06049e-05 0.188238 3945.89 1 1.17264 0.129856
95 2 -0.00110297 -3.14915e-05 0.187033 3945.42 1 1.17265 0.129868
96 2 -0.00107214 -3.23149e-05 0.185915 3944.99 1 1.17265 0.129881
97 2 -0.00104067 -3.30717e-05 0.184882 3944.59 1 1.17266 0.129894
98 2 -0.0010086 -3.37589e-05 0.183937 3944.22 1 1.17266 0.129907
99 2 -0.000976003 -3.43736e-05 0.183079 3943.89 1 1.17267 0.129921
100 2 -0.00094293 -3.49131e-05 0.182309 3943.59 1 1.17267 0.129934
101 2 -0.000909447 -3.5375e-05 0.181628 3943.33 1 1.17268 0.129948
102 2 -0.000875621 -3.57571e-05 0.181037 3943.1 1 1.17268 0.129961
103 2 -0.000841517 -3.60576e-05 0.180534 3942.9 1 1.17269 0.129975
104 2 -0.000807204 -3.62748e-05 0.180122 3942.74 1 1.17269 0.129989
105 2 -0.000772753 -3.64073e-05 0.179799 3942.62 1 1.17269 0.130003
106 2 -0.000738234 -3.6454e-05 0.179565 3942.53 1 1.1727 0.130017
107 2 -0.000703719 -3.64142e-05 0.179422 3942.47 1 1.1727 0.130031
108 2 -0.00066928 -3.62871e-05 0.179368 3942.45 1 1.1727 0.130044
109 2 -0.000634991 -3.60727e-05 0.179404 3942.47 1 1.17271 0.130058
110 2 -0.000600923 -3.5771e-05 0.179528 3942.51 1 1.17271 0.130071
111 2 -0.000567149 -3.53822e-05 0.17974 3942.6 1 1.17271 0.130085
112 2 -0.000533741 -3.49069e-05 0.18004 3942.71 1 1.17271 0.130098
113 2 -0.000500771 -3.4346e-05 0.180427 3942.86 1 1.17271 0.130111
114 2 -0.000468308 -3.37006e-05 0.180899 3943.05 1 1.17272 0.130124
115 2 -0.000436422 -3.2972e-05 0.181455 3943.26 1 1.17272 0.130136
116 2 -0.000405182 -3.2162e-05 0.182094 3943.51 1 1.17272 0.130148
117 2 -0.000374652 -3.12723e-05 0.182814 3943.79 1 1.17272 0.13016
118 2 -0.000344898 -3.0305e-05 0.183614 3944.1 1 1.17272 0.130172
119 2 -0.000315983 -2.92623e-05 0.18449 3944.44 1 1.17272 0.130183
120 2 -0.000287968 -2.81468e-05 0.185441 3944.8 1 1.17272 0.130194
121 2 -0.00026091 -2.6961e-05 0.186464 3945.2 1 1.17272 0.130204
122 2 -0.000234867 -2.57079e-05 0.187556 3945.62 1 1.17272 0.130214
123 2 -0.000209893 -2.43904e-05 0.188714 3946.07 1 1.17272 0.130224
124 2 -0.000186038 -2.30116e-05 0.189934 3946.54 1 1.17272 0.130233
125 2 -0.000163351 -2.15748e-05 0.191211 3947.04 1 1.17272 0.130242
126 2 -0.000141879 -2.00835e-05 0.192543 3947.55 1 1.17272 0.13025
127 2 -0.000121663 -1.85413e-05 0.193924 3948.09 1 1.17272 0.130257
128 2 -0.000102744 -1.69521e-05 0.195348 3948.64 1 1.17272 0.130264
129 2 -8.51581e-05 -1.53199e-05 0.196811 3949.21 1 1.17272 0.130271
130 2 -6.89379e-05 -1.36492e-05 0.198307 3949.79 1 1.17271 0.130277
131 2 -5.41125e-05 -1.19446e-05 0.199829 3950.38 1 1.17271 0.130282
132 2 -4.07065e-05 -1.02114e-05 0.201369 3950.97 1 1.17271 0.130287
133 2 -2.874e-05 -8.45542e-06 0.202922 3951.57 1 1.17271 0.130292
134 2 -1.82276e-05 -6.68327e-06 0.204479 3952.18 1 1.17271 0.130295
135 2 -9.17799e-06 -4.90282e-06 0.206031 3952.78 1 1.17271 0.130298
136 2 -1.59226e-06 -3.12309e-06 0.20757 3953.37 1 1.17271 0.130301
137 2 4.53676e-06 -1.35612e-06 0.209086 3953.96 1 1.1727 0.130303
138 2 9.22791e-06 3.84949e-07 0.210569 3954.54 1 1.1727 0.130305
139 2 1.25139e-05 2.08129e-06 0.212009 3955.09 1 1.1727 0.130305
140 2 1.44418e-05 3.71136e-06 0.213394 3955.63 1 1.1727 0.130306
141 2 1.50813e-05 5.23988e-06 0.214713 3956.14 1 1.1727 0.130306
142 2 1.45463e-05 6.63542e-06 0.215953 3956.62 1 1.1727 0.130305
143 2 1.29877e-05 7.8217e-06 0.217102 3957.07 1 1.1727 0.130305
144 2 1.05568e-05 8.73061e-06 0.218143 3957.47 1 1.1727 0.130303
145 2 7.48218e-06 9.2551e-06 0.219071 3957.83 1 1.1727 0.130302
146 2 4.33122e-06 9.41418e-06 0.219811 3958.12 1 1.1727 0.130301
147 2 1.91077e-06 8.38813e-06 0.220648 3958.44 1 1.1727 0.1303
148 2 6.19033e-07 5.08985e-06 0.220987 3958.57 1 1.1727 0.1303
149 2 0 0 0.220987 3958.57 1 1.1727 0.1303
0 3 0 0 0.456331 4049.72 1 1.17213 0.130236
1 3 -4.17501e-06 1.24575e-05 0.456331 4049.72 1 1.17213 0.130234
2 3 -1.31894e-05 2.85097e-05 0.456082 4049.62 1 1.17213 0.130229
3 3 -3.08622e-05 4.51316e-05 0.455728 4049.49 1 1.17213 0.130221
4 3 -5.81543e-05 6.18356e-05 0.455371 4049.35 1 1.17212 0.130209
5 3 -9.44957e-05 7.7291e-05 0.454699 4049.09 1 1.17212 0.130193
6 3 -0.000139119 9.1233e-05 0.453898 4048.78 1 1.17212 0.130174
7 3 -0.000191128 0.000103257 0.45289 4048.39 1 1.17212 0.130153
8 3 -0.000249444 0.00011328 0.451673 4047.92 1 1.17212 0.130129
9 3 -0.000312948 0.000121285 0.45023 4047.36 1 1.17212 0.130104
10 3 -0.000380586 0.00012742 0.448553 4046.71 1 1.17212 0.130077
11 3 -0.000451355 0.000131809 0.446638 4045.97 1 1.17212 0.130049
12 3 -0.000524316 0.00013462 0.444484 4045.13 1 1.17212 0.13002
13 3 -0.000598614 0.000136015 0.442094 4044.21 1 1.17212 0.129991
14 3 -0.000673492 0.000136173 0.439473 4043.19 1 1.17213 0.129962
15 3 -0.000748281 0.000135256 0.436632 4042.09 1 1.17213 0.129933
16 3 -0.000822402 0.000133425 0.43358 4040.91 1 1.17213 0.129905
17 3 -0.000895363 0.00013083 0.430332 4039.65 1 1.17213 0.129877
18 3 -0.000966754 0.000127611 0.426902 4038.32 1 1.17214 0.12985
19 3 -0.00103624 0.000123896 0.423307 4036.93 1 1.17214 0.129823
20 3 -0.00110356 0.000119803 0.419563 4035.48 1 1.17215 0.129798
21 3 -0.00116852 0.000115438 0.415688 4033.98 1 1.17215 0.129774
22 3 -0.00123096 0.000110893 0.411699 4032.43 1 1.17216 0.12975
23 3 -0.00129081 0.000106253 0.407614 4030.85 1 1.17216 0.129728
24 3 -0.00134802 0.000101588 0.40345 4029.24 1 1.17217 0.129706
25 3 -0.00140258 9.69596e-05 0.399222 4027.6 1 1.17217 0.129686
26 3 -0.00145452 9.2419e-05 0.394944 4025.94 1 1.17218 0.129667
27 3 -0.00150389 8.80073e-05 0.390633 4024.27 1 1.17218 0.129649
28 3 -0.00155077 8.37574e-05 0.386298 4022.6 1 1.17219 0.129631
29 3 -0.00159526 7.96936e-05 0.381954 4020.91 1 1.17219 0.129615
30 3 -0.00163745 7.58332e-05 0.377608 4019.23 1 1.1722 0.1296
31 3 -0.00167748 7.21866e-05 0.373271 4017.55 1 1.17221 0.129585
32 3 -0.00171545 6.87587e-05 0.36895 4015.88 1 1.17221 0.129571
33 3 -0.00175149 6.55491e-05 0.364651 4014.21 1 1.17222 0.129558
34 3 -0.00178572 6.25535e-05 0.36038 4012.56 1 1.17222 0.129546
35 3 -0.00181826 5.97638e-05 0.356141 4010.92 1 1.17223 0.129534
36 3 -0.00184922 5.7169e-05 0.351937 4009.29 1 1.17224 0.129523
37 3 -0.00187872 5.4756e-05 0.347771 4007.67 1 1.17224 0.129513
38 3 -0.00190684 5.25101e-05 0.343645 4006.08 1 1.17225 0.129503
39 3 -0.00193368 5.04153e-05 0.339561 4004.49 1 1.17226 0.129493
40 3 -0.00195933 4.84551e-05 0.335518 4002.93 1 1.17226 0.129484
41 3 -0.00198385 4.66126e-05 0.331517 4001.38 1 1.17227 0.129475
42 3 -0.0020073 4.48711e-05 0.327559 3999.85 1 1.17228 0.129467
43 3 -0.00202975 4.32139e-05 0.323642 3998.33 1 1.17228 0.129459
44 3 -0.00205123 4.16253e-05 0.319766 3996.83 1 1.17229 0.129452
45 3 -0.00207178 4.00899e-05 0.315931 3995.34 1 1.1723 0.129445
46 3 -0.00209143 3.85935e-05 0.312136 3993.87 1 1.1723 0.129438
47 3 -0.00211019 3.71226e-05 0.30838 3992.42 1 1.17231 0.129431
48 3 -0.00212808 3.56648e-05 0.304663 3990.98 1 1.17232 0.129425
49 3 -0.00214511 3.42087e-05 0.300984 3989.55 1 1.17232 0.12942
50 3 -0.00216126 3.27439e-05 0.297343 3988.14 1 1.17233 0.129414
51 3 -0.00217654 3.12612e-05 0.293738 3986.75 1 1.17234 0.129409
52 3 -0.00219093 2.97522e-05 0.29017 3985.37 1 1.17235 0.129405
53 3 -0.00220441 2.82096e-05 0.286639 3984 1 1.17235 0.1294
54 3 -0.00221697 2.6627e-05 0.283144 3982.64 1 1.17236 0.129396