Title="LBM for phase change with fin"
dt=1 dx=1
VARIABLES="X","Y","U","V","T","H","fl","pa","Test"
ZONE T="BOX",I=150,J=150,F=POINT
0 0 0 0 0.47297 4056.16 1 1.24397 0.138219
1 0 0 0 0.480384 4059.04 1 1.24397 0.138219
2 0 0 0 0.481572 4059.5 1 1.24396 0.138217
3 0 0 0 0.482099 4059.7 1 1.24396 0.138216
4 0 0 0 0.482359 4059.8 1 1.24396 0.138216
5 0 0 0 0.482095 4059.7 1 1.24396 0.138215
6 0 0 0 0.481063 4059.3 1 1.24396 0.138214
7 0 0 0 0.479146 4058.56 1 1.24395 0.138214
8 0 0 0 0.47628 4057.45 1 1.24395 0.138213
9 0 0 0 0.472451 4055.96 1 1.24396 0.138213
10 0 0 0 0.467691 4054.12 1 1.24396 0.138213
11 0 0 0 0.462077 4051.95 1 1.24396 0.138213
12 0 0 0 0.455723 4049.48 1 1.24396 0.138214
13 0 0 0 0.448776 4046.79 1 1.24397 0.138214
14 0 0 0 0.441404 4043.94 1 1.24397 0.138215
15 0 0 0 0.433797 4040.99 1 1.24397 0.138215
16 0 0 0 0.426148 4038.03 1 1.24398 0.138216
17 0 0 0 0.41865 4035.13 1 1.24399 0.138217
18 0 0 0 0.411487 4032.35 1 1.24399 0.138218
19 0 0 0 0.404823 4029.77 1 1.244 0.138219
20 0 0 0 0.3988 4027.44 1 1.244 0.13822
21 0 0 0 0.393526 4025.4 1 1.24401 0.13822
22 0 0 0 0.389075 4023.67 1 1.24402 0.138221
23 0 0 0 0.385481 4022.28 1 1.24402 0.138222
24 0 0 0 0.382741 4021.22 1 1.24403 0.138223
25 0 0 0 0.380813 4020.47 1 1.24404 0.138224
26 0 0 0 0.379619 4020.01 1 1.24404 0.138225
27 0 0 0 0.37905 4019.79 1 1.24405 0.138226
28 0 0 0 0.378971 4019.76 1 1.24406 0.138227
29 0 0 0 0.379225 4019.86 1 1.24407 0.138228
30 0 0 0 0.379647 4020.02 1 1.24407 0.138229
31 0 0 0 0.380064 4020.18 1 1.24408 0.13823
32 0 0 0 0.38031 4020.28 1 1.24409 0.138231
33 0 0 0 0.380229 4020.25 1 1.2441 0.138232
34 0 0 0 0.379683 4020.03 1 1.24411 0.138233
35 0 0 0 0.37856 4019.6 1 1.24411 0.138234
36 0 0 0 0.376778 4018.91 1 1.24412 0.138235
37 0 0 0 0.374288 4017.94 1 1.24413 0.138237
38 0 0 0 0.371078 4016.7 1 1.24414 0.138238
39 0 0 0 0.367171 4015.19 1 1.24415 0.138239
40 0 0 0 0.362625 4013.43 1 1.24416 0.13824
41 0 0 0 0.357532 4011.46 1 1.24417 0.138242
42 0 0 0 0.352012 4009.32 1 1.24418 0.138243
43 0 0 0 0.346206 4007.07 1 1.24419 0.138244
44 0 0 0 0.340273 4004.77 1 1.2442 0.138246
45 0 0 0 0.334382 4002.49 1 1.2442 0.138247
46 0 0 0 0.328702 4000.29 1 1.24421 0.138248
47 0 0 0 0.3234 3998.24 1 1.24422 0.138249
48 0 0 0 0.318628 3996.39 1 1.24423 0.13825
49 0 0 0 0.314517 3994.8 1 1.24424 0.138252
50 0 0 0 0.311177 3993.5 1 1.24425 0.138253
51 0 0 0 0.308685 3992.54 1 1.24426 0.138254
52 0 0 0 0.307086 3991.92 1 1.24426 0.138255
53 0 0 0 0.306391 3991.65 1 1.24427 0.138255
54 0 0 0 0.306572 3991.72 1 1.24428 0.138256
55 0 0 0 0.307569 3992.1 1 1.24428 0.138257
56 0 0 0 0.309292 3992.77 1 1.24429 0.138258
57 0 0 0 0.311618 3993.67 1 1.24429 0.138258
58 0 0 0 0.314405 3994.75 1 1.2443 0.138259
59 0 0 0 0.317494 3995.95 1 1.2443 0.13826
60 0 0 0 0.320715 3997.2 1 1.24431 0.13826
61 0 0 0 0.323894 3998.43 1 1.24431 0.138261
62 0 0 0 0.326865 3999.58 1 1.24431 0.138261
63 0 0 0 0.32947 4000.59 1 1.24432 0.138262
64 0 0 0 0.331574 4001.4 1 1.24432 0.138262
65 0 0 0 0.333061 4001.98 1 1.24432 0.138262
66 0 0 0 0.333847 4002.28 1 1.24432 0.138263
67 0 0 0 0.333882 4002.3 1 1.24433 0.138263
68 0 0 0 0.333147 4002.01 1 1.24433 0.138263
69 0 0 0 0.331661 4001.44 1 1.24433 0.138263
70 0 0 0 0.329477 4000.59 1 1.24433 0.138264
71 0 0 0 0.326681 3999.51 1 1.24433 0.138264
72 0 0 0 0.323385 3998.23 1 1.24433 0.138264
73 0 0 0 0.319729 3996.81 1 1.24433 0.138264
74 0 0 0 0.315866 3995.32 1 1.24433 0.138264
75 0 0 0 0.311964 3993.81 1 1.24433 0.138264
76 0 0 0 0.308193 3992.35 1 1.24433 0.138264
77 0 0 0 0.30472 3991 1 1.24433 0.138263
78 0 0 0 0.301703 3989.83 1 1.24433 0.138263
79 0 0 0 0.299281 3988.89 1 1.24432 0.138263
80 0 0 0 0.297572 3988.23 1 1.24432 0.138262
81 0 0 0 0.296664 3987.88 1 1.24432 0.138262
82 0 0 0 0.296615 3987.86 1 1.24431 0.138261
83 0 0 0 0.297449 3988.18 1 1.24431 0.138261
84 0 0 0 0.299153 3988.84 1 1.2443 0.13826
85 0 0 0 0.30168 3989.82 1 1.2443 0.138259
86 0 0 0 0.304952 3991.09 1 1.24429 0.138258
87 0 0 0 0.308859 3992.6 1 1.24428 0.138257
88 0 0 0 0.313269 3994.31 1 1.24427 0.138256
89 0 0 0 0.31803 3996.16 1 1.24427 0.138255
90 0 0 0 0.322976 3998.07 1 1.24426 0.138254
91 0 0 0 0.327938 3999.99 1 1.24425 0.138253
92 0 0 0 0.332749 4001.86 1 1.24424 0.138251
93 0 0 0 0.337249 4003.6 1 1.24423 0.13825
94 0 0 0 0.341296 4005.17 1 1.24422 0.138249
95 0 0 0 0.344771 4006.51 1 1.24421 0.138248
96 0 0 0 0.347582 4007.6 1 1.24421 0.138246
97 0 0 0 0.349669 4008.41 1 1.2442 0.138245
98 0 0 0 0.351006 4008.93 1 1.24419 0.138244
99 0 0 0 0.351605 4009.16 1 1.24418 0.138243
100 0 0 0 0.351512 4009.12 1 1.24417 0.138242
101 0 0 0 0.350807 4008.85 1 1.24416 0.138241
102 0 0 0 0.349601 4008.38 1 1.24415 0.138239
103 0 0 0 0.34803 4007.77 1 1.24414 0.138238
104 0 0 0 0.34625 4007.09 1 1.24414 0.138237
105 0 0 0 0.344431 4006.38 1 1.24413 0.138236
106 0 0 0 0.342746 4005.73 1 1.24412 0.138235
107 0 0 0 0.341369 4005.19 1 1.24411 0.138234
108 0 0 0 0.340462 4004.84 1 1.2441 0.138233
109 0 0 0 0.340171 4004.73 1 1.24409 0.138232
110 0 0 0 0.340619 4004.9 1 1.24409 0.138231
111 0 0 0 0.341897 4005.4 1 1.24408 0.13823
112 0 0 0 0.344066 4006.24 1 1.24407 0.138229
113 0 0 0 0.34715 4007.43 1 1.24406 0.138228
114 0 0 0 0.351133 4008.98 1 1.24405 0.138226
115 0 0 0 0.355965 4010.85 1 1.24404 0.138225
116 0 0 0 0.361557 4013.01 1 1.24403 0.138224
117 0 0 0 0.367791 4015.43 1 1.24403 0.138223
118 0 0 0 0.374521 4018.03 1 1.24402 0.138222
119 0 0 0 0.38158 4020.77 1 1.24401 0.138221
120 0 0 0 0.388786 4023.56 1 1.244 0.138219
121 0 0 0 0.395952 4026.33 1 1.24399 0.138218
122 0 0 0 0.402892 4029.02 1 1.24398 0.138217
123 0 0 0 0.409432 4031.56 1 1.24398 0.138216
124 0 0 0 0.41541 4033.87 1 1.24397 0.138215
125 0 0 0 0.420694 4035.92 1 1.24396 0.138214
126 0 0 0 0.425176 4037.65 1 1.24395 0.138213
127 0 0 0 0.428786 4039.05 1 1.24395 0.138212
128 0 0 0 0.431488 4040.1 1 1.24394 0.138212
129 0 0 0 0.433287 4040.79 1 1.24394 0.138211
130 0 0 0 0.434222 4041.16 1 1.24393 0.138211
131 0 0 0 0.434369 4041.21 1 1.24393 0.13821
132 0 0 0 0.433833 4041.01 1 1.24393 0.13821
133 0 0 0 0.432747 4040.59 1 1.24392 0.138209
134 0 0 0 0.431259 4040.01 1 1.24392 0.138209
135 0 0 0 0.429533 4039.34 1 1.24392 0.138209
136 0 0 0 0.427731 4038.64 1 1.24392 0.138209
137 0 0 0 0.426012 4037.98 1 1.24392 0.138209
138 0 0 0 0.424522 4037.4 1 1.24392 0.138209
139 0 0 0 0.423386 4036.96 1 1.24392 0.138209
140 0 0 0 0.422698 4036.69 1 1.24392 0.13821
141 0 0 0 0.422524 4036.63 1 1.24392 0.13821
142 0 0 0 0.42289 4036.77 1 1.24392 0.138211
143 0 0 0 0.42378 4037.11 1 1.24392 0.138211
144 0 0 0 0.425141 4037.64 1 1.24392 0.138212
145 0 0 0 0.426873 4038.31 1 1.24393 0.138213
146 0 0 0 0.428885 4039.09 1 1.24393 0.138213
147 0 0 0 0.431026 4039.92 1 1.24393 0.138214
148 0 0 0 0.43213 4040.35 1 1.24393 0.138215
149 0 0 0 0.426121 4038.02 1 1.24393 0.138215
0 1 0 0 0.47297 4056.16 1 1.24397 0.138219
1 1 1.58614e-06 1.01278e-05 0.47297 4056.16 1 1.24397 0.138219
2 1 -7.68401e-07 1.45319e-05 0.473487 4056.36 1 1.24396 0.138217
3 1 -7.86171e-06 1.77977e-05 0.473404 4056.33 1 1.24396 0.138213
4 1 -1.87331e-05 2.06048e-05 0.473141 4056.23 1 1.24396 0.138208
5 1 -3.32904e-05 2.35681e-05 0.472466 4055.97 1 1.24396 0.138201
6 1 -5.13429e-05 2.61136e-05 0.471151 4055.46 1 1.24396 0.138193
7 1 -7.22789e-05 2.80987e-05 0.469094 4054.66 1 1.24395 0.138184
8 1 -9.54805e-05 2.96094e-05 0.466236 4053.56 1 1.24395 0.138174
9 1 -0.000120402 3.06895e-05 0.462561 4052.13 1 1.24396 0.138163
10 1 -0.000146541 3.13627e-05 0.458098 4050.4 1 1.24396 0.138153
11 1 -0.000173425 3.16613e-05 0.452907 4048.39 1 1.24396 0.138142
12 1 -0.00020064 3.16406e-05 0.447086 4046.14 1 1.24396 0.138131
13 1 -0.000227828 3.13454e-05 0.440756 4043.69 1 1.24397 0.13812
14 1 -0.000254685 3.08235e-05 0.43406 4041.09 1 1.24397 0.138109
15 1 -0.000280965 3.01202e-05 0.427156 4038.42 1 1.24397 0.138099
16 1 -0.00030647 2.92803e-05 0.420207 4035.73 1 1.24398 0.138089
17 1 -0.000331054 2.83437e-05 0.413376 4033.08 1 1.24399 0.13808
18 1 -0.000354611 2.73467e-05 0.406816 4030.54 1 1.24399 0.138071
19 1 -0.000377077 2.63207e-05 0.400665 4028.16 1 1.244 0.138062
20 1 -0.000398417 2.5292e-05 0.395041 4025.98 1 1.244 0.138054
21 1 -0.000418625 2.42812e-05 0.390036 4024.04 1 1.24401 0.138047
22 1 -0.000437714 2.33033e-05 0.38571 4022.37 1 1.24402 0.13804
23 1 -0.000455713 2.23675e-05 0.382094 4020.97 1 1.24402 0.138033
24 1 -0.000472656 2.14781e-05 0.379184 4019.84 1 1.24403 0.138027
25 1 -0.000488581 2.0634e-05 0.376947 4018.97 1 1.24404 0.138022
26 1 -0.000503525 1.98304e-05 0.375318 4018.34 1 1.24404 0.138016
27 1 -0.000517516 1.90586e-05 0.374207 4017.91 1 1.24405 0.138012
28 1 -0.000530575 1.83076e-05 0.373502 4017.64 1 1.24406 0.138007
29 1 -0.000542709 1.75642e-05 0.373077 4017.48 1 1.24407 0.138003
30 1 -0.000553913 1.68145e-05 0.372794 4017.37 1 1.24407 0.137999
31 1 -0.00056417 1.60448e-05 0.372513 4017.26 1 1.24408 0.137996
32 1 -0.000573446 1.52417e-05 0.372098 4017.1 1 1.24409 0.137993
33 1 -0.000581698 1.43937e-05 0.371421 4016.83 1 1.2441 0.137991
34 1 -0.000588873 1.34913e-05 0.370373 4016.43 1 1.24411 0.137989
35 1 -0.000594909 1.25275e-05 0.368863 4015.84 1 1.24411 0.137988
36 1 -0.000599742 1.14983e-05 0.366827 4015.05 1 1.24412 0.137987
37 1 -0.000603303 1.04029e-05 0.364226 4014.05 1 1.24413 0.137987
38 1 -0.000605528 9.24352e-06 0.361053 4012.82 1 1.24414 0.137987
39 1 -0.000606354 8.0255e-06 0.357329 4011.38 1 1.24415 0.137988
40 1 -0.000605728 6.7569e-06 0.353107 4009.74 1 1.24416 0.137989
41 1 -0.000603607 5.44819e-06 0.348461 4007.94 1 1.24417 0.137992
42 1 -0.000599957 4.11182e-06 0.343492 4006.02 1 1.24418 0.137994
43 1 -0.000594762 2.76162e-06 0.338317 4004.01 1 1.24419 0.137998
44 1 -0.000588016 1.4123e-06 0.333068 4001.98 1 1.2442 0.138002
45 1 -0.00057973 7.88019e-08 0.327882 3999.97 1 1.2442 0.138006
46 1 -0.00056993 -1.22425e-06 0.322899 3998.04 1 1.24421 0.138012
47 1 -0.000558654 -2.48314e-06 0.318253 3996.24 1 1.24422 0.138018
48 1 -0.000545956 -3.6855e-06 0.314067 3994.62 1 1.24423 0.138024
49 1 -0.000531898 -4.82081e-06 0.310448 3993.22 1 1.24424 0.138031
50 1 -0.000516552 -5.88069e-06 0.307482 3992.07 1 1.24425 0.138038
51 1 -0.000499998 -6.85916e-06 0.305231 3991.2 1 1.24426 0.138046
52 1 -0.00048232 -7.75279e-06 0.303729 3990.62 1 1.24426 0.138055
53 1 -0.000463603 -8.56073e-06 0.302981 3990.33 1 1.24427 0.138063
54 1 -0.000443932 -9.28464e-06 0.302964 3990.32 1 1.24428 0.138072
55 1 -0.000423392 -9.9285e-06 0.303626 3990.58 1 1.24428 0.138082
56 1 -0.000402061 -1.04984e-05 0.30489 3991.07 1 1.24429 0.138091
57 1 -0.000380011 -1.10021e-05 0.306655 3991.75 1 1.24429 0.138101
58 1 -0.000357307 -1.14489e-05 0.308805 3992.58 1 1.2443 0.138111
59 1 -0.000334006 -1.18487e-05 0.311206 3993.51 1 1.2443 0.138121
60 1 -0.000310154 -1.22119e-05 0.313721 3994.49 1 1.24431 0.138132
61 1 -0.000285791 -1.2549e-05 0.316206 3995.45 1 1.24431 0.138142
62 1 -0.000260946 -1.28696e-05 0.318527 3996.35 1 1.24431 0.138153
63 1 -0.000235639 -1.31826e-05 0.320554 3997.13 1 1.24432 0.138164
64 1 -0.000209888 -1.34952e-05 0.322177 3997.76 1 1.24432 0.138175
65 1 -0.000183701 -1.3813e-05 0.323302 3998.2 1 1.24432 0.138186
66 1 -0.000157084 -1.41394e-05 0.323862 3998.41 1 1.24432 0.138197
67 1 -0.000130044 -1.44756e-05 0.323815 3998.4 1 1.24433 0.138209
68 1 -0.000102586 -1.48206e-05 0.323147 3998.14 1 1.24433 0.138221
69 1 -7.47181e-05 -1.51708e-05 0.321874 3997.64 1 1.24433 0.138232
70 1 -4.64547e-05 -1.55206e-05 0.320039 3996.93 1 1.24433 0.138244
71 1 -1.78159e-05 -1.58624e-05 0.317712 3996.03 1 1.24433 0.138256
72 1 1.11694e-05 -1.61865e-05 0.314986 3994.98 1 1.24433 0.138268
73 1 4.04626e-05 -1.64823e-05 0.311974 3993.81 1 1.24433 0.138281
74 1 7.00141e-05 -1.67378e-05 0.308801 3992.58 1 1.24433 0.138293
75 1 9.97628e-05 -1.69406e-05 0.305605 3991.34 1 1.24433 0.138305
76 1 0.000129636 -1.70782e-05 0.302525 3990.15 1 1.24433 0.138317
77 1 0.000159549 -1.71387e-05 0.299697 3989.06 1 1.24433 0.13833
78 1 0.000189408 -1.71109e-05 0.297249 3988.11 1 1.24433 0.138342
79 1 0.000219106 -1.69851e-05 0.295297 3987.35 1 1.24432 0.138354
80 1 0.000248533 -1.67533e-05 0.293936 3986.82 1 1.24432 0.138365
81 1 0.000277569 -1.64099e-05 0.293241 3986.56 1 1.24432 0.138377
82 1 0.00030609 -1.59512e-05 0.29326 3986.56 1 1.24431 0.138388
83 1 0.000333972 -1.53767e-05 0.294011 3986.85 1 1.24431 0.138399
84 1 0.000361092 -1.46882e-05 0.295488 3987.43 1 1.2443 0.13841
85 1 0.000387329 -1.38904e-05 0.297654 3988.26 1 1.2443 0.13842
86 1 0.000412568 -1.29906e-05 0.300445 3989.35 1 1.24429 0.138429
87 1 0.000436704 -1.19987e-05 0.303774 3990.63 1 1.24428 0.138438
88 1 0.000459642 -1.09265e-05 0.307534 3992.09 1 1.24427 0.138447
89 1 0.000481301 -9.78776e-06 0.311601 3993.67 1 1.24427 0.138455
90 1 0.000501613 -8.59768e-06 0.315841 3995.31 1 1.24426 0.138462
91 1 0.000520526 -7.37228e-06 0.320116 3996.96 1 1.24425 0.138469
92 1 0.000538005 -6.12796e-06 0.324288 3998.58 1 1.24424 0.138475
93 1 0.000554032 -4.88093e-06 0.328228 4000.11 1 1.24423 0.13848
94 1 0.000568605 -3.64667e-06 0.331817 4001.5 1 1.24422 0.138485
95 1 0.000581739 -2.43937e-06 0.334956 4002.71 1 1.24421 0.138489
96 1 0.00059346 -1.27148e-06 0.337569 4003.72 1 1.24421 0.138493
97 1 0.00060381 -1.53223e-07 0.339603 4004.51 1 1.2442 0.138496
98 1 0.00061284 9.07727e-07 0.341037 4005.07 1 1.24419 0.138498
99 1 0.000620608 1.90651e-06 0.341877 4005.39 1 1.24418 0.1385
100 1 0.000627178 2.84125e-06 0.342158 4005.5 1 1.24417 0.138502
101 1 0.000632615 3.71308e-06 0.341944 4005.42 1 1.24416 0.138503
102 1 0.000636984 4.52605e-06 0.341325 4005.18 1 1.24415 0.138504
103 1 0.000640343 5.28695e-06 0.34041 4004.82 1 1.24414 0.138504
104 1 0.000642747 6.00502e-06 0.339326 4004.4 1 1.24414 0.138504
105 1 0.00064424 6.69145e-06 0.338213 4003.97 1 1.24413 0.138504
106 1 0.000644854 7.35899e-06 0.337212 4003.58 1 1.24412 0.138503
107 1 0.00064461 8.02127e-06 0.336466 4003.3 1 1.24411 0.138502
108 1 0.000643514 8.69228e-06 0.336111 4003.16 1 1.2441 0.1385
109 1 0.000641559 9.38565e-06 0.336267 4003.22 1 1.24409 0.138498
110 1 0.000638726 1.01141e-05 0.337037 4003.52 1 1.24409 0.138496
111 1 0.000634979 1.08887e-05 0.338499 4004.08 1 1.24408 0.138493
112 1 0.000630277 1.17185e-05 0.340706 4004.94 1 1.24407 0.13849
113 1 0.000624565 1.261e-05 0.343678 4006.09 1 1.24406 0.138487
114 1 0.000617786 1.35666e-05 0.347407 4007.53 1 1.24405 0.138483
115 1 0.000609877 1.45887e-05 0.351851 4009.25 1 1.24404 0.138478
116 1 0.000600776 1.56733e-05 0.356942 4011.23 1 1.24403 0.138473
117 1 0.000590427 1.68141e-05 0.362581 4013.41 1 1.24403 0.138468
118 1 0.000578777 1.80015e-05 0.36865 4015.76 1 1.24402 0.138462
119 1 0.000565786 1.92234e-05 0.37501 4018.22 1 1.24401 0.138455
120 1 0.000551425 2.04648e-05 0.381511 4020.74 1 1.244 0.138448
121 1 0.000535682 2.17092e-05 0.387997 4023.25 1 1.24399 0.138441
122 1 0.000518562 2.29382e-05 0.394313 4025.7 1 1.24398 0.138432
123 1 0.00050009 2.41331e-05 0.40031 4028.02 1 1.24398 0.138424
124 1 0.00048031 2.52749e-05 0.405854 4030.17 1 1.24397 0.138414
125 1 0.000459285 2.63452e-05 0.410828 4032.1 1 1.24396 0.138405
126 1 0.000437099 2.73267e-05 0.41514 4033.77 1 1.24395 0.138395
127 1 0.000413854 2.82037e-05 0.418728 4035.16 1 1.24395 0.138384
128 1 0.00038967 2.89624e-05 0.421556 4036.25 1 1.24394 0.138373
129 1 0.000364681 2.95911e-05 0.423624 4037.05 1 1.24394 0.138362
130 1 0.000339036 3.00803e-05 0.424958 4037.57 1 1.24393 0.138351
131 1 0.000312895 3.04226e-05 0.425617 4037.82 1 1.24393 0.13834
132 1 0.000286428 3.0612e-05 0.425684 4037.85 1 1.24393 0.138328
133 1 0.000259817 3.06437e-05 0.425264 4037.69 1 1.24392 0.138317
134 1 0.000233249 3.05133e-05 0.424477 4037.38 1 1.24392 0.138306
135 1 0.000206924 3.02165e-05 0.423454 4036.99 1 1.24392 0.138295
136 1 0.000181048 2.97469e-05 0.422328 4036.55 1 1.24392 0.138284
137 1 0.000155844 2.90976e-05 0.421227 4036.12 1 1.24392 0.138274
138 1 0.000131545 2.82591e-05 0.42027 4035.75 1 1.24392 0.138264
139 1 0.000108401 2.72212e-05 0.419557 4035.48 1 1.24392 0.138254
140 1 8.66838e-05 2.59627e-05 0.419165 4035.33 1 1.24392 0.138246
141 1 6.66857e-05 2.44763e-05 0.419146 4035.32 1 1.24392 0.138238
142 1 4.87027e-05 2.27649e-05 0.419519 4035.46 1 1.24392 0.138231
143 1 3.30462e-05 2.07979e-05 0.420269 4035.75 1 1.24392 0.138225
144 1 2.00728e-05 1.85243e-05 0.421348 4036.17 1 1.24392 0.13822
145 1 1.01142e-05 1.60589e-05 0.422668 4036.68 1 1.24393 0.138217
146 1 3.09361e-06 1.39931e-05 0.424157 4037.26 1 1.24393 0.138215
147 1 -1.17379e-06 1.16723e-05 0.425688 4037.85 1 1.24393 0.138214
148 1 -2.02832e-06 8.52611e-06 0.426121 4038.02 1 1.24393 0.138214
149 1 0 0 0.426121 4038.02 1 1.24393 0.138215
0 2 0 0 0.465422 4053.24 1 1.244 0.138222
1 2 -2.11268e-06 1.06386e-05 0.465422 4053.24 1 1.244 0.138221
2 2 -7.77531e-06 2.13316e-05 0.465245 4053.17 1 1.244 0.138218
3 2 -2.07171e-05 3.077e-05 0.464715 4052.97 1 1.244 0.138211
4 2 -4.18515e-05 3.94828e-05 0.464199 4052.77 1 1.244 0.138201
5 2 -7.0177e-05 4.76139e-05 0.463207 4052.38 1 1.244 0.138188
6 2 -0.000104574 5.46456e-05 0.461679 4051.79 1 1.244 0.138173
7 2 -0.000144191 6.03538e-05 0.459518 4050.95 1 1.244 0.138155
8 2 -0.000188124 6.48026e-05 0.456679 4049.85 1 1.244 0.138137
9 2 -0.000235369 6.80388e-05 0.453149 4048.49 1 1.244 0.138117
10 2 -0.000284979 7.01678e-05 0.448949 4046.86 1 1.244 0.138096
11 2 -0.000336111 7.12906e-05 0.444132 4044.99 1 1.244 0.138075
12 2 -0.000388011 7.15385e-05 0.438778 4042.92 1 1.244 0.138053
13 2 -0.000440013 7.10312e-05 0.432988 4040.68 1 1.24401 0.138032
14 2 -0.00049155 6.98969e-05 0.426883 4038.31 1 1.24401 0.138012
15 2 -0.000542152 6.82552e-05 0.420593 4035.88 1 1.24401 0.137991
16 2 -0.000591439 6.62222e-05 0.414255 4033.42 1 1.24402 0.137972
17 2 -0.000639116 6.39024e-05 0.408003 4031 1 1.24402 0.137953
18 2 -0.000684966 6.1391e-05 0.401967 4028.66 1 1.24403 0.137935
19 2 -0.00072884 5.87696e-05 0.396261 4026.45 1 1.24403 0.137917
20 2 -0.000770649 5.6107e-05 0.390982 4024.41 1 1.24404 0.137901
21 2 -0.00081035 5.34569e-05 0.386206 4022.56 1 1.24405 0.137886
22 2 -0.000847938 5.08592e-05 0.381985 4020.93 1 1.24405 0.137871
23 2 -0.000883435 4.83394e-05 0.378343 4019.51 1 1.24406 0.137857
24 2 -0.000916878 4.59099e-05 0.375278 4018.33 1 1.24406 0.137845
25 2 -0.000948313 4.3571e-05 0.372763 4017.35 1 1.24407 0.137833
26 2 -0.000977782 4.13125e-05 0.370745 4016.57 1 1.24408 0.137822
27 2 -0.00100532 3.91157e-05 0.369151 4015.96 1 1.24408 0.137811
28 2 -0.00103095 3.69554e-05 0.367891 4015.47 1 1.24409 0.137802
29 2 -0.00105468 3.4802e-05 0.366862 4015.07 1 1.2441 0.137793
30 2 -0.0010765 3.2624e-05 0.365953 4014.72 1 1.24411 0.137785
31 2 -0.00109635 3.03895e-05 0.365052 4014.37 1 1.24411 0.137778
32 2 -0.0011142 2.80689e-05 0.364049 4013.98 1 1.24412 0.137772
33 2 -0.00112996 2.56361e-05 0.362844 4013.51 1 1.24413 0.137766
34 2 -0.00114355 2.30701e-05 0.36135 4012.93 1 1.24414 0.137762
35 2 -0.00115487 2.0356e-05 0.359496 4012.22 1 1.24414 0.137759
36 2 -0.00116381 1.7486e-05 0.357231 4011.34 1 1.24415 0.137756
37 2 -0.00117026 1.44596e-05 0.35453 4010.29 1 1.24416 0.137755
38 2 -0.00117412 1.12834e-05 0.351388 4009.08 1 1.24417 0.137755
39 2 -0.00117529 7.97127e-06 0.347825 4007.7 1 1.24418 0.137756
40 2 -0.00117369 4.54326e-06 0.343886 4006.17 1 1.24419 0.137758
41 2 -0.00116925 1.02494e-06 0.339634 4004.52 1 1.2442 0.137761
42 2 -0.00116193 -2.55378e-06 0.335151 4002.79 1 1.2442 0.137765
43 2 -0.00115169 -6.15988e-06 0.330534 4001 1 1.24421 0.137771
44 2 -0.00113855 -9.75861e-06 0.325889 3999.2 1 1.24422 0.137778
45 2 -0.00112251 -1.33148e-05 0.321327 3997.43 1 1.24423 0.137786
46 2 -0.00110363 -1.67943e-05 0.31696 3995.74 1 1.24424 0.137795
47 2 -0.00108198 -2.01651e-05 0.312894 3994.17 1 1.24425 0.137805
48 2 -0.00105765 -2.33985e-05 0.309228 3992.75 1 1.24426 0.137817
49 2 -0.00103075 -2.64702e-05 0.306044 3991.51 1 1.24426 0.137829
50 2 -0.00100139 -2.93607e-05 0.30341 3990.49 1 1.24427 0.137843
51 2 -0.000969726 -3.20561e-05 0.301373 3989.7 1 1.24428 0.137857
52 2 -0.000935887 -3.45484e-05 0.299956 3989.16 1 1.24429 0.137872
53 2 -0.000900023 -3.68352e-05 0.299163 3988.85 1 1.24429 0.137888
54 2 -0.000862281 -3.89198e-05 0.298971 3988.77 1 1.2443 0.137904
55 2 -0.000822804 -4.08109e-05 0.299337 3988.92 1 1.2443 0.137922
56 2 -0.00078173 -4.25215e-05 0.300196 3989.25 1 1.24431 0.137939
57 2 -0.000739185 -4.40685e-05 0.301466 3989.74 1 1.24431 0.137958
58 2 -0.000695285 -4.54716e-05 0.303052 3990.35 1 1.24432 0.137977
59 2 -0.000650135 -4.67525e-05 0.304845 3991.05 1 1.24432 0.137996
60 2 -0.000603825 -4.79336e-05 0.306735 3991.78 1 1.24433 0.138016
61 2 -0.00055643 -4.90368e-05 0.308608 3992.51 1 1.24433 0.138036
62 2 -0.000508015 -5.00829e-05 0.310353 3993.18 1 1.24434 0.138057
63 2 -0.000458632 -5.109e-05 0.311868 3993.77 1 1.24434 0.138078
64 2 -0.000408323 -5.20732e-05 0.313066 3994.23 1 1.24434 0.138099
65 2 -0.000357123 -5.30434e-05 0.313871 3994.55 1 1.24434 0.138121
66 2 -0.000305063 -5.40069e-05 0.31423 3994.68 1 1.24435 0.138143
67 2 -0.000252172 -5.49652e-05 0.314111 3994.64 1 1.24435 0.138165
68 2 -0.000198482 -5.59146e-05 0.313502 3994.4 1 1.24435 0.138188
69 2 -0.000144029 -5.6846e-05 0.312416 3993.98 1 1.24435 0.13821
70 2 -8.88565e-05 -5.77457e-05 0.31089 3993.39 1 1.24435 0.138233
71 2 -3.30219e-05 -5.85957e-05 0.308978 3992.65 1 1.24435 0.138257
72 2 2.34055e-05 -5.93738e-05 0.306757 3991.79 1 1.24435 0.13828
73 2 8.034e-05 -6.00551e-05 0.304314 3990.84 1 1.24435 0.138304
74 2 0.000137679 -6.06125e-05 0.301753 3989.85 1 1.24435 0.138328
75 2 0.0001953 -6.1018e-05 0.299182 3988.86 1 1.24435 0.138352
76 2 0.000253063 -6.12434e-05 0.296712 3987.9 1 1.24435 0.138375
77 2 0.000310811 -6.12617e-05 0.294454 3987.02 1 1.24435 0.138399
78 2 0.000368369 -6.1048e-05 0.29251 3986.27 1 1.24435 0.138423
79 2 0.000425545 -6.05808e-05 0.290974 3985.68 1 1.24434 0.138446
80 2 0.000482139 -5.98425e-05 0.289922 3985.27 1 1.24434 0.138469
81 2 0.000537937 -5.88205e-05 0.289415 3985.07 1 1.24434 0.138492
82 2 0.000592721 -5.75077e-05 0.289492 3985.1 1 1.24433 0.138514
83 2 0.000646272 -5.5903e-05 0.290172 3985.37 1 1.24433 0.138535
84 2 0.00069837 -5.40115e-05 0.291448 3985.86 1 1.24432 0.138556
85 2 0.000748803 -5.18447e-05 0.293294 3986.58 1 1.24432 0.138576
86 2 0.000797371 -4.94201e-05 0.29566 3987.49 1 1.24431 0.138595
87 2 0.000843884 -4.67608e-05 0.298478 3988.58 1 1.2443 0.138613
88 2 0.000888175 -4.38953e-05 0.301662 3989.82 1 1.2443 0.138631
89 2 0.000930095 -4.08562e-05 0.305116 3991.15 1 1.24429 0.138647
90 2 0.00096952 -3.76795e-05 0.308732 3992.55 1 1.24428 0.138662
91 2 0.00100635 -3.44035e-05 0.3124 3993.98 1 1.24427 0.138676
92 2 0.00104052 -3.10674e-05 0.316008 3995.37 1 1.24427 0.138689
93 2 0.00107199 -2.77106e-05 0.319452 3996.71 1 1.24426 0.1387
94 2 0.00110074 -2.43706e-05 0.322637 3997.94 1 1.24425 0.138711
95 2 0.00112678 -2.10825e-05 0.32548 3999.04 1 1.24424 0.13872
96 2 0.00115015 -1.78773e-05 0.327918 3999.99 1 1.24423 0.138729
97 2 0.00117091 -1.47812e-05 0.329908 4000.76 1 1.24422 0.138736
98 2 0.00118913 -1.18145e-05 0.331428 4001.34 1 1.24421 0.138742
99 2 0.0012049 -8.99118e-06 0.332482 4001.75 1 1.24421 0.138747
100 2 0.00121833 -6.3182e-06 0.333095 4001.99 1 1.2442 0.138752
101 2 0.00122951 -3.79546e-06 0.333317 4002.08 1 1.24419 0.138755
102 2 0.00123854 -1.41591e-06 0.333218 4002.04 1 1.24418 0.138757
103 2 0.00124553 8.34098e-07 0.332883 4001.91 1 1.24417 0.138759
104 2 0.00125056 2.97414e-06 0.332416 4001.73 1 1.24416 0.13876
105 2 0.00125371 5.02884e-06 0.331926 4001.54 1 1.24416 0.13876
106 2 0.00125503 7.02671e-06 0.33153 4001.38 1 1.24415 0.138759
107 2 0.00125457 8.9989e-06 0.331343 4001.31 1 1.24414 0.138758
108 2 0.00125233 1.09778e-05 0.331475 4001.36 1 1.24413 0.138756
109 2 0.00124831 1.29954e-05 0.332027 4001.58 1 1.24412 0.138753
110 2 0.00124248 1.5082e-05 0.333082 4001.99 1 1.24411 0.138749
111 2 0.0012348 1.72648e-05 0.334707 4002.61 1 1.24411 0.138745
112 2 0.0012252 1.9566e-05 0.336947 4003.48 1 1.2441 0.13874
113 2 0.0012136 2.20024e-05 0.339822 4004.6 1 1.24409 0.138734
114 2 0.00119992 2.45839e-05 0.343327 4005.95 1 1.24408 0.138727
115 2 0.00118405 2.73131e-05 0.347432 4007.54 1 1.24407 0.138719
116 2 0.0011659 3.01847e-05 0.352082 4009.34 1 1.24407 0.13871
117 2 0.00114538 3.31853e-05 0.357199 4011.33 1 1.24406 0.1387
118 2 0.00112241 3.62942e-05 0.362688 4013.45 1 1.24405 0.138689
119 2 0.00109693 3.94831e-05 0.368436 4015.68 1 1.24404 0.138678
120 2 0.0010689 4.27178e-05 0.374321 4017.96 1 1.24403 0.138665
121 2 0.0010383 4.59588e-05 0.380214 4020.24 1 1.24403 0.138651
122 2 0.00100515 4.91626e-05 0.385986 4022.48 1 1.24402 0.138636
123 2 0.000969487 5.22833e-05 0.391513 4024.62 1 1.24401 0.13862
124 2 0.000931395 5.52742e-05 0.396681 4026.62 1 1.244 0.138603
125 2 0.000890988 5.80891e-05 0.401392 4028.44 1 1.244 0.138585
126 2 0.000848414 6.06837e-05 0.405565 4030.06 1 1.24399 0.138566
127 2 0.000803854 6.30166e-05 0.409143 4031.44 1 1.24399 0.138547
128 2 0.000757523 6.50504e-05 0.412092 4032.59 1 1.24398 0.138527
129 2 0.000709662 6.67522e-05 0.414406 4033.48 1 1.24398 0.138506
130 2 0.00066054 6.80932e-05 0.416103 4034.14 1 1.24397 0.138485
131 2 0.000610449 6.9049e-05 0.417223 4034.57 1 1.24397 0.138464
132 2 0.000559706 6.95981e-05 0.417831 4034.81 1 1.24396 0.138442
133 2 0.000508646 6.97213e-05 0.418007 4034.88 1 1.24396 0.138421
134 2 0.000457626 6.93994e-05 0.417846 4034.81 1 1.24396 0.138399
135 2 0.000407023 6.86133e-05 0.417451 4034.66 1 1.24396 0.138378
136 2 0.000357237 6.73391e-05 0.416928 4034.46 1 1.24396 0.138358
137 2 0.000308692 6.55509e-05 0.416379 4034.25 1 1.24396 0.138338
138 2 0.000261841 6.32139e-05 0.415898 4034.06 1 1.24396 0.138318
139 2 0.000217172 6.02956e-05 0.415565 4033.93 1 1.24396 0.1383
140 2 0.000175197 5.67484e-05 0.415441 4033.88 1 1.24396 0.138283
141 2 0.00013646 5.25393e-05 0.415567 4033.93 1 1.24396 0.138268
142 2 0.000101556 4.76332e-05 0.415956 4034.08 1 1.24396 0.138254
143 2 7.10924e-05 4.20234e-05 0.416593 4034.33 1 1.24396 0.138243
144 2 4.55479e-05 3.57149e-05 0.417435 4034.66 1 1.24396 0.138233
145 2 2.53169e-05 2.8914e-05 0.418413 4035.03 1 1.24396 0.138226
146 2 1.101e-05 2.22058e-05 0.419369 4035.4 1 1.24396 0.138221
147 2 3.13532e-06 1.52955e-05 0.420451 4035.82 1 1.24396 0.138219
148 2 5.13146e-07 7.71362e-06 0.420913 4036 1 1.24397 0.138219
149 2 0 0 0.420913 4036 1 1.24397 0.138218
0 3 0 0 0.457083 4050.01 1 1.24404 0.138226
1 3 -5.43257e-06 1.52517e-05 0.457083 4050.01 1 1.24404 0.138224
2 3 -1.66255e-05 3.37923e-05 0.456804 4049.9 1 1.24404 0.138218
3 3 -3.74514e-05 5.21573e-05 0.456331 4049.72 1 1.24404 0.138207
4 3 -6.84805e-05 6.99258e-05 0.455689 4049.47 1 1.24404 0.138192
5 3 -0.000108826 8.57662e-05 0.454478 4049 1 1.24404 0.138174
6 3 -0.00015744 9.95454e-05 0.452824 4048.36 1 1.24404 0.138153
7 3 -0.000213189 0.000110929 0.450607 4047.5 1 1.24404 0.138129
8 3 -0.000274795 0.000119919 0.447804 4046.42 1 1.24404 0.138102
9 3 -0.000340974 0.000126563 0.444404 4045.1 1 1.24404 0.138074
10 3 -0.000410541 0.000131076 0.440426 4043.56 1 1.24404 0.138045
11 3 -0.000482393 0.000133644 0.435915 4041.81 1 1.24404 0.138015
12 3 -0.00055552 0.000134498 0.43094 4039.89 1 1.24404 0.137985
13 3 -0.000629027 0.000133866 0.425585 4037.81 1 1.24404 0.137955
14 3 -0.000702143 0.00013199 0.419953 4035.63 1 1.24405 0.137925
15 3 -0.000774215 0.000129093 0.414154 4033.38 1 1.24405 0.137896
16 3 -0.000844701 0.000125393 0.408302 4031.12 1 1.24406 0.137867
17 3 -0.00091317 0.000121087 0.402511 4028.88 1 1.24406 0.13784
18 3 -0.000979286 0.000116356 0.396888 4026.7 1 1.24406 0.137813
19 3 -0.0010428 0.000111354 0.391531 4024.62 1 1.24407 0.137788
20 3 -0.00110355 0.00010621 0.386519 4022.68 1 1.24407 0.137764
21 3 -0.00116142 0.00010103 0.381918 4020.9 1 1.24408 0.137741
22 3 -0.00121635 9.58909e-05 0.37777 4019.29 1 1.24409 0.13772
23 3 -0.00126832 9.08437e-05 0.374095 4017.87 1 1.24409 0.137699
24 3 -0.00131732 8.59161e-05 0.370893 4016.63 1 1.2441 0.13768
25 3 -0.00136339 8.11139e-05 0.36814 4015.56 1 1.2441 0.137662
26 3 -0.00140654 7.64237e-05 0.365796 4014.66 1 1.24411 0.137646
27 3 -0.00144677 7.18166e-05 0.3638 4013.88 1 1.24412 0.13763
28 3 -0.00148411 6.72522e-05 0.362079 4013.22 1 1.24412 0.137616
29 3 -0.00151852 6.2682e-05 0.36055 4012.62 1 1.24413 0.137603
30 3 -0.00154999 5.80537e-05 0.359124 4012.07 1 1.24414 0.137591
31 3 -0.00157845 5.3315e-05 0.357712 4011.52 1 1.24414 0.137581
32 3 -0.00160385 4.84165e-05 0.356226 4010.95 1 1.24415 0.137572
33 3 -0.00162609 4.33156e-05 0.354586 4010.31 1 1.24416 0.137564
34 3 -0.00164506 3.79782e-05 0.352725 4009.59 1 1.24417 0.137557
35 3 -0.00166067 3.2381e-05 0.350587 4008.76 1 1.24417 0.137552
36 3 -0.00167278 2.65127e-05 0.348135 4007.82 1 1.24418 0.137549
37 3 -0.00168128 2.03744e-05 0.34535 4006.74 1 1.24419 0.137547
38 3 -0.00168606 1.39801e-05 0.342232 4005.53 1 1.2442 0.137546
39 3 -0.00168702 7.35547e-06 0.3388 4004.2 1 1.24421 0.137547
40 3 -0.00168407 5.37076e-07 0.335091 4002.76 1 1.24422 0.13755
41 3 -0.00167715 -6.42931e-06 0.331161 4001.24 1 1.24422 0.137554
42 3 -0.00166621 -1.34907e-05 0.327075 3999.66 1 1.24423 0.13756
43 3 -0.00165124 -2.05888e-05 0.322913 3998.05 1 1.24424 0.137568
44 3 -0.00163224 -2.76628e-05 0.318761 3996.44 1 1.24425 0.137578
45 3 -0.00160926 -3.46514e-05 0.314708 3994.87 1 1.24426 0.137589
46 3 -0.00158236 -4.14949e-05 0.310843 3993.37 1 1.24426 0.137601
47 3 -0.00155162 -4.81379e-05 0.307251 3991.98 1 1.24427 0.137615
48 3 -0.00151716 -5.45304e-05 0.304007 3990.72 1 1.24428 0.137631
49 3 -0.00147911 -6.06302e-05 0.301177 3989.63 1 1.24429 0.137648
50 3 -0.00143762 -6.64034e-05 0.298813 3988.71 1 1.24429 0.137667
51 3 -0.00139286 -7.18255e-05 0.296949 3987.99 1 1.2443 0.137686
52 3 -0.001345 -7.6882e-05 0.295602 3987.47 1 1.24431 0.137707
53 3 -0.00129421 -8.15681e-05 0.29477 3987.15 1 1.24431 0.13773
54 3 -0.00124068 -8.58884e-05 0.294434 3987.02 1 1.24432 0.137753
55 3 -0.00118458 -8.98562e-05 0.294556 3987.06 1 1.24433 0.137777