Title="LBM for phase change with fin"
dt=1 dx=1
VARIABLES="X","Y","U","V","T","H","fl","pa","Test"
ZONE T="BOX",I=150,J=150,F=POINT
0 0 0 0 0.469759 10728.3 1 1.62702 0.180781
1 0 0 0 0.476893 10735.6 1 1.62702 0.180781
2 0 0 0 0.477125 10735.9 1 1.62702 0.18078
3 0 0 0 0.476503 10735.2 1 1.62702 0.180779
4 0 0 0 0.476222 10734.9 1 1.62701 0.180779
5 0 0 0 0.475899 10734.6 1 1.62701 0.180778
6 0 0 0 0.475322 10734 1 1.62701 0.180778
7 0 0 0 0.474359 10733 1 1.62701 0.180777
8 0 0 0 0.472933 10731.6 1 1.62701 0.180777
9 0 0 0 0.470975 10729.6 1 1.62701 0.180777
10 0 0 0 0.468445 10727 1 1.62701 0.180778
11 0 0 0 0.465313 10723.8 1 1.62701 0.180778
12 0 0 0 0.461569 10719.9 1 1.62701 0.180778
13 0 0 0 0.457214 10715.5 1 1.62702 0.180779
14 0 0 0 0.452264 10710.4 1 1.62703 0.180779
15 0 0 0 0.446747 10704.7 1 1.62703 0.18078
16 0 0 0 0.440703 10698.5 1 1.62704 0.180781
17 0 0 0 0.43418 10691.9 1 1.62705 0.180782
18 0 0 0 0.427235 10684.7 1 1.62706 0.180783
19 0 0 0 0.419935 10677.3 1 1.62707 0.180785
20 0 0 0 0.412348 10669.5 1 1.62708 0.180786
21 0 0 0 0.404551 10661.5 1 1.62709 0.180787
22 0 0 0 0.39662 10653.4 1 1.62711 0.180789
23 0 0 0 0.388634 10645.2 1 1.62712 0.18079
24 0 0 0 0.380671 10637 1 1.62713 0.180792
25 0 0 0 0.372808 10629 1 1.62714 0.180793
26 0 0 0 0.365118 10621.1 1 1.62716 0.180795
27 0 0 0 0.357672 10613.5 1 1.62717 0.180797
28 0 0 0 0.350535 10606.1 1 1.62719 0.180798
29 0 0 0 0.343766 10599.2 1 1.6272 0.1808
30 0 0 0 0.337419 10592.7 1 1.62721 0.180801
31 0 0 0 0.331539 10586.7 1 1.62723 0.180803
32 0 0 0 0.326166 10581.2 1 1.62724 0.180804
33 0 0 0 0.32133 10576.2 1 1.62725 0.180806
34 0 0 0 0.317054 10571.8 1 1.62726 0.180807
35 0 0 0 0.313354 10568 1 1.62728 0.180809
36 0 0 0 0.310235 10564.8 1 1.62729 0.18081
37 0 0 0 0.307699 10562.2 1 1.6273 0.180811
38 0 0 0 0.305735 10560.2 1 1.62731 0.180813
39 0 0 0 0.304328 10558.8 1 1.62732 0.180814
40 0 0 0 0.303454 10557.9 1 1.62733 0.180815
41 0 0 0 0.303084 10557.5 1 1.62734 0.180816
42 0 0 0 0.303183 10557.6 1 1.62735 0.180817
43 0 0 0 0.303709 10558.2 1 1.62736 0.180818
44 0 0 0 0.304616 10559.1 1 1.62737 0.18082
45 0 0 0 0.305854 10560.4 1 1.62738 0.180821
46 0 0 0 0.30737 10561.9 1 1.62739 0.180822
47 0 0 0 0.309109 10563.7 1 1.6274 0.180822
48 0 0 0 0.311012 10565.6 1 1.62741 0.180823
49 0 0 0 0.313022 10567.7 1 1.62741 0.180824
50 0 0 0 0.315081 10569.8 1 1.62742 0.180825
51 0 0 0 0.31713 10571.9 1 1.62743 0.180826
52 0 0 0 0.319114 10573.9 1 1.62744 0.180827
53 0 0 0 0.320979 10575.9 1 1.62744 0.180828
54 0 0 0 0.322676 10577.6 1 1.62745 0.180829
55 0 0 0 0.324158 10579.1 1 1.62746 0.180829
56 0 0 0 0.325384 10580.4 1 1.62747 0.18083
57 0 0 0 0.326316 10581.3 1 1.62747 0.180831
58 0 0 0 0.326923 10581.9 1 1.62748 0.180832
59 0 0 0 0.327181 10582.2 1 1.62749 0.180833
60 0 0 0 0.32707 10582.1 1 1.62749 0.180833
61 0 0 0 0.32658 10581.6 1 1.6275 0.180834
62 0 0 0 0.325702 10580.7 1 1.62751 0.180835
63 0 0 0 0.32444 10579.4 1 1.62751 0.180835
64 0 0 0 0.322801 10577.7 1 1.62752 0.180836
65 0 0 0 0.3208 10575.7 1 1.62752 0.180837
66 0 0 0 0.318455 10573.3 1 1.62753 0.180838
67 0 0 0 0.315796 10570.5 1 1.62753 0.180838
68 0 0 0 0.312852 10567.5 1 1.62754 0.180839
69 0 0 0 0.309661 10564.3 1 1.62755 0.180839
70 0 0 0 0.306265 10560.8 1 1.62755 0.18084
71 0 0 0 0.302708 10557.1 1 1.62755 0.18084
72 0 0 0 0.299038 10553.4 1 1.62756 0.180841
73 0 0 0 0.295308 10549.6 1 1.62756 0.180841
74 0 0 0 0.291567 10545.7 1 1.62757 0.180842
75 0 0 0 0.287871 10541.9 1 1.62757 0.180842
76 0 0 0 0.284272 10538.2 1 1.62757 0.180842
77 0 0 0 0.280824 10534.7 1 1.62757 0.180843
78 0 0 0 0.277577 10531.4 1 1.62757 0.180843
79 0 0 0 0.274582 10528.3 1 1.62758 0.180843
80 0 0 0 0.271885 10525.6 1 1.62758 0.180843
81 0 0 0 0.269529 10523.1 1 1.62758 0.180843
82 0 0 0 0.267555 10521.1 1 1.62757 0.180843
83 0 0 0 0.265996 10519.5 1 1.62757 0.180843
84 0 0 0 0.264882 10518.4 1 1.62757 0.180842
85 0 0 0 0.264239 10517.7 1 1.62757 0.180842
86 0 0 0 0.264084 10517.6 1 1.62757 0.180842
87 0 0 0 0.264432 10517.9 1 1.62756 0.180841
88 0 0 0 0.265287 10518.8 1 1.62756 0.180841
89 0 0 0 0.266652 10520.2 1 1.62755 0.18084
90 0 0 0 0.268519 10522.1 1 1.62755 0.180839
91 0 0 0 0.270878 10524.5 1 1.62754 0.180839
92 0 0 0 0.273709 10527.4 1 1.62753 0.180838
93 0 0 0 0.276991 10530.8 1 1.62752 0.180837
94 0 0 0 0.280692 10534.6 1 1.62752 0.180836
95 0 0 0 0.28478 10538.8 1 1.62751 0.180835
96 0 0 0 0.289215 10543.3 1 1.6275 0.180834
97 0 0 0 0.293955 10548.2 1 1.62749 0.180833
98 0 0 0 0.298954 10553.3 1 1.62748 0.180831
99 0 0 0 0.304163 10558.6 1 1.62747 0.18083
100 0 0 0 0.309531 10564.1 1 1.62746 0.180829
101 0 0 0 0.315005 10569.7 1 1.62744 0.180827
102 0 0 0 0.320532 10575.4 1 1.62743 0.180826
103 0 0 0 0.326058 10581.1 1 1.62742 0.180825
104 0 0 0 0.331532 10586.7 1 1.62741 0.180823
105 0 0 0 0.336903 10592.2 1 1.62739 0.180822
106 0 0 0 0.342121 10597.5 1 1.62738 0.18082
107 0 0 0 0.347142 10602.7 1 1.62737 0.180819
108 0 0 0 0.351924 10607.6 1 1.62736 0.180817
109 0 0 0 0.356428 10612.2 1 1.62734 0.180816
110 0 0 0 0.360622 10616.5 1 1.62733 0.180814
111 0 0 0 0.364478 10620.4 1 1.62732 0.180813
112 0 0 0 0.367974 10624 1 1.62731 0.180811
113 0 0 0 0.371095 10627.2 1 1.62729 0.18081
114 0 0 0 0.373832 10630 1 1.62728 0.180808
115 0 0 0 0.37618 10632.4 1 1.62727 0.180807
116 0 0 0 0.378144 10634.4 1 1.62726 0.180806
117 0 0 0 0.379734 10636.1 1 1.62725 0.180804
118 0 0 0 0.380966 10637.3 1 1.62723 0.180803
119 0 0 0 0.381861 10638.2 1 1.62722 0.180802
120 0 0 0 0.382448 10638.8 1 1.62721 0.180801
121 0 0 0 0.38276 10639.2 1 1.6272 0.1808
122 0 0 0 0.382834 10639.2 1 1.62719 0.180798
123 0 0 0 0.382709 10639.1 1 1.62718 0.180797
124 0 0 0 0.382431 10638.8 1 1.62718 0.180796
125 0 0 0 0.382046 10638.4 1 1.62717 0.180795
126 0 0 0 0.381598 10638 1 1.62716 0.180795
127 0 0 0 0.381137 10637.5 1 1.62715 0.180794
128 0 0 0 0.380708 10637.1 1 1.62715 0.180793
129 0 0 0 0.380355 10636.7 1 1.62714 0.180792
130 0 0 0 0.38012 10636.5 1 1.62713 0.180792
131 0 0 0 0.380041 10636.4 1 1.62713 0.180791
132 0 0 0 0.380149 10636.5 1 1.62712 0.18079
133 0 0 0 0.380474 10636.8 1 1.62712 0.18079
134 0 0 0 0.381035 10637.4 1 1.62712 0.18079
135 0 0 0 0.381848 10638.2 1 1.62711 0.180789
136 0 0 0 0.38292 10639.3 1 1.62711 0.180789
137 0 0 0 0.384251 10640.7 1 1.62711 0.180789
138 0 0 0 0.385832 10642.3 1 1.62711 0.180789
139 0 0 0 0.387649 10644.2 1 1.62711 0.180789
140 0 0 0 0.389677 10646.3 1 1.62711 0.180789
141 0 0 0 0.391889 10648.5 1 1.62711 0.180789
142 0 0 0 0.394243 10650.9 1 1.62711 0.180789
143 0 0 0 0.396706 10653.5 1 1.62711 0.180789
144 0 0 0 0.39922 10656 1 1.62711 0.18079
145 0 0 0 0.401766 10658.6 1 1.62711 0.18079
146 0 0 0 0.40433 10661.3 1 1.62712 0.18079
147 0 0 0 0.407108 10664.1 1 1.62712 0.180791
148 0 0 0 0.408433 10665.5 1 1.62712 0.180792
149 0 0 0 0.402145 10659 1 1.62712 0.180792
0 1 0 0 0.469759 10728.3 1 1.62702 0.180781
1 1 2.28489e-06 9.25432e-06 0.469759 10728.3 1 1.62702 0.180782
2 1 1.96597e-06 1.17307e-05 0.469573 10728.1 1 1.62702 0.180781
3 1 -8.12896e-07 1.31933e-05 0.468549 10727.1 1 1.62702 0.180779
4 1 -5.36814e-06 1.4381e-05 0.467884 10726.4 1 1.62701 0.180776
5 1 -1.15385e-05 1.55054e-05 0.467203 10725.7 1 1.62701 0.180772
6 1 -1.91812e-05 1.65048e-05 0.466301 10724.8 1 1.62701 0.180767
7 1 -2.81047e-05 1.73459e-05 0.465049 10723.5 1 1.62701 0.180762
8 1 -3.80991e-05 1.8021e-05 0.463376 10721.8 1 1.62701 0.180757
9 1 -4.8957e-05 1.85347e-05 0.461217 10719.6 1 1.62701 0.180751
10 1 -6.04805e-05 1.88942e-05 0.458534 10716.8 1 1.62701 0.180745
11 1 -7.24833e-05 1.91087e-05 0.4553 10713.5 1 1.62701 0.180738
12 1 -8.47926e-05 1.91879e-05 0.451506 10709.6 1 1.62701 0.180732
13 1 -9.72491e-05 1.91424e-05 0.447156 10705.1 1 1.62702 0.180726
14 1 -0.000109708 1.89831e-05 0.442264 10700.1 1 1.62703 0.18072
15 1 -0.000122038 1.87211e-05 0.436858 10694.6 1 1.62703 0.180714
16 1 -0.000134124 1.83677e-05 0.430975 10688.6 1 1.62704 0.180709
17 1 -0.000145861 1.79343e-05 0.424661 10682.1 1 1.62705 0.180703
18 1 -0.000157163 1.74322e-05 0.417971 10675.2 1 1.62706 0.180698
19 1 -0.000167953 1.68723e-05 0.410966 10668.1 1 1.62707 0.180694
20 1 -0.00017817 1.62657e-05 0.403711 10660.6 1 1.62708 0.180689
21 1 -0.000187762 1.56228e-05 0.396275 10653 1 1.62709 0.180686
22 1 -0.000196692 1.49536e-05 0.388732 10645.3 1 1.62711 0.180682
23 1 -0.000204934 1.42674e-05 0.381151 10637.5 1 1.62712 0.180679
24 1 -0.000212468 1.35732e-05 0.373606 10629.8 1 1.62713 0.180677
25 1 -0.000219289 1.28789e-05 0.366167 10622.2 1 1.62714 0.180675
26 1 -0.000225396 1.21919e-05 0.3589 10614.7 1 1.62716 0.180673
27 1 -0.000230797 1.15185e-05 0.351869 10607.5 1 1.62717 0.180671
28 1 -0.000235506 1.08644e-05 0.345132 10600.6 1 1.62719 0.18067
29 1 -0.000239542 1.02344e-05 0.338743 10594.1 1 1.6272 0.18067
30 1 -0.00024293 9.63236e-06 0.332748 10587.9 1 1.62721 0.18067
31 1 -0.000245697 9.06143e-06 0.327188 10582.2 1 1.62723 0.18067
32 1 -0.000247873 8.52395e-06 0.322097 10577 1 1.62724 0.18067
33 1 -0.000249489 8.02152e-06 0.317501 10572.3 1 1.62725 0.180671
34 1 -0.000250577 7.55505e-06 0.313419 10568.1 1 1.62726 0.180671
35 1 -0.000251172 7.12483e-06 0.309863 10564.5 1 1.62728 0.180672
36 1 -0.000251305 6.73054e-06 0.306838 10561.4 1 1.62729 0.180674
37 1 -0.000251009 6.37136e-06 0.304341 10558.8 1 1.6273 0.180675
38 1 -0.000250314 6.046e-06 0.302364 10556.8 1 1.62731 0.180677
39 1 -0.000249249 5.75279e-06 0.30089 10555.3 1 1.62732 0.180679
40 1 -0.000247842 5.48969e-06 0.299897 10554.3 1 1.62733 0.180681
41 1 -0.000246117 5.25438e-06 0.299358 10553.7 1 1.62734 0.180683
42 1 -0.000244098 5.04432e-06 0.299239 10553.6 1 1.62735 0.180685
43 1 -0.000241804 4.85678e-06 0.299504 10553.9 1 1.62736 0.180687
44 1 -0.000239252 4.68891e-06 0.300109 10554.5 1 1.62737 0.18069
45 1 -0.000236459 4.53777e-06 0.301011 10555.4 1 1.62738 0.180692
46 1 -0.000233435 4.4004e-06 0.30216 10556.6 1 1.62739 0.180695
47 1 -0.000230192 4.27385e-06 0.303508 10558 1 1.6274 0.180698
48 1 -0.000226737 4.1552e-06 0.305003 10559.5 1 1.62741 0.1807
49 1 -0.000223074 4.04163e-06 0.306594 10561.1 1 1.62741 0.180703
50 1 -0.000219207 3.93047e-06 0.308228 10562.8 1 1.62742 0.180706
51 1 -0.000215137 3.81916e-06 0.309855 10564.5 1 1.62743 0.180709
52 1 -0.000210864 3.70537e-06 0.311426 10566.1 1 1.62744 0.180713
53 1 -0.000206384 3.58696e-06 0.312894 10567.6 1 1.62744 0.180716
54 1 -0.000201695 3.46204e-06 0.314216 10568.9 1 1.62745 0.180719
55 1 -0.000196791 3.32896e-06 0.315351 10570.1 1 1.62746 0.180723
56 1 -0.000191667 3.18636e-06 0.316262 10571 1 1.62747 0.180726
57 1 -0.000186317 3.03318e-06 0.316919 10571.7 1 1.62747 0.18073
58 1 -0.000180735 2.86862e-06 0.317294 10572.1 1 1.62748 0.180734
59 1 -0.000174912 2.6922e-06 0.317366 10572.2 1 1.62749 0.180738
60 1 -0.000168844 2.50376e-06 0.317119 10571.9 1 1.62749 0.180742
61 1 -0.000162523 2.30342e-06 0.316544 10571.3 1 1.6275 0.180746
62 1 -0.000155943 2.09159e-06 0.315636 10570.4 1 1.62751 0.18075
63 1 -0.000149101 1.86899e-06 0.314396 10569.1 1 1.62751 0.180755
64 1 -0.000141992 1.6366e-06 0.312832 10567.5 1 1.62752 0.180759
65 1 -0.000134614 1.39565e-06 0.310958 10565.6 1 1.62752 0.180764
66 1 -0.000126964 1.14762e-06 0.308792 10563.4 1 1.62753 0.180769
67 1 -0.000119044 8.94198e-07 0.306357 10560.9 1 1.62754 0.180774
68 1 -0.000110856 6.37277e-07 0.303682 10558.1 1 1.62754 0.180779
69 1 -0.000102401 3.78912e-07 0.300799 10555.2 1 1.62755 0.180784
70 1 -9.36873e-05 1.21301e-07 0.297744 10552 1 1.62755 0.180789
71 1 -8.47205e-05 -1.33245e-07 0.294559 10548.8 1 1.62755 0.180794
72 1 -7.55102e-05 -3.82329e-07 0.291283 10545.4 1 1.62756 0.1808
73 1 -6.60677e-05 -6.23496e-07 0.287963 10542 1 1.62756 0.180806
74 1 -5.64061e-05 -8.54267e-07 0.284644 10538.6 1 1.62757 0.180811
75 1 -4.65405e-05 -1.07216e-06 0.281372 10535.3 1 1.62757 0.180817
76 1 -3.64879e-05 -1.27474e-06 0.278194 10532 1 1.62757 0.180823
77 1 -2.62672e-05 -1.45959e-06 0.275156 10528.9 1 1.62757 0.180828
78 1 -1.58992e-05 -1.62443e-06 0.272304 10526 1 1.62757 0.180834
79 1 -5.40622e-06 -1.76704e-06 0.26968 10523.3 1 1.62758 0.18084
80 1 5.18766e-06 -1.88537e-06 0.267325 10520.9 1 1.62758 0.180846
81 1 1.58569e-05 -1.97749e-06 0.265277 10518.8 1 1.62758 0.180851
82 1 2.65746e-05 -2.04166e-06 0.26357 10517 1 1.62757 0.180857
83 1 3.73125e-05 -2.07634e-06 0.262236 10515.7 1 1.62757 0.180863
84 1 4.80415e-05 -2.08017e-06 0.261301 10514.7 1 1.62757 0.180868
85 1 5.87312e-05 -2.05202e-06 0.260785 10514.2 1 1.62757 0.180874
86 1 6.93506e-05 -1.99099e-06 0.260706 10514.1 1 1.62757 0.180879
87 1 7.98682e-05 -1.89642e-06 0.261076 10514.5 1 1.62756 0.180885
88 1 9.02517e-05 -1.76789e-06 0.2619 10515.3 1 1.62756 0.18089
89 1 0.000100469 -1.60521e-06 0.26318 10516.6 1 1.62755 0.180895
90 1 0.000110487 -1.40848e-06 0.264911 10518.4 1 1.62755 0.180899
91 1 0.000120274 -1.178e-06 0.267084 10520.6 1 1.62754 0.180904
92 1 0.000129796 -9.14339e-07 0.269683 10523.3 1 1.62753 0.180908
93 1 0.000139024 -6.18313e-07 0.272689 10526.4 1 1.62752 0.180912
94 1 0.000147924 -2.90958e-07 0.276077 10529.8 1 1.62752 0.180916
95 1 0.000156468 6.64611e-08 0.279817 10533.7 1 1.62751 0.18092
96 1 0.000164624 4.52466e-07 0.283877 10537.8 1 1.6275 0.180923
97 1 0.000172365 8.65378e-07 0.28822 10542.3 1 1.62749 0.180926
98 1 0.000179663 1.30333e-06 0.292806 10547 1 1.62748 0.180929
99 1 0.000186493 1.76429e-06 0.297593 10551.9 1 1.62747 0.180931
100 1 0.00019283 2.24605e-06 0.302537 10557 1 1.62746 0.180933
101 1 0.000198651 2.74631e-06 0.307591 10562.1 1 1.62744 0.180935
102 1 0.000203936 3.26261e-06 0.312709 10567.4 1 1.62743 0.180937
103 1 0.000208666 3.79243e-06 0.317845 10572.6 1 1.62742 0.180938
104 1 0.000212824 4.33315e-06 0.322953 10577.9 1 1.62741 0.180939
105 1 0.000216396 4.88213e-06 0.327987 10583 1 1.62739 0.180939
106 1 0.000219369 5.43669e-06 0.332904 10588.1 1 1.62738 0.180939
107 1 0.000221734 5.99415e-06 0.337663 10593 1 1.62737 0.180939
108 1 0.000223482 6.55186e-06 0.342227 10597.6 1 1.62736 0.180939
109 1 0.00022461 7.10723e-06 0.346562 10602.1 1 1.62734 0.180938
110 1 0.000225113 7.65772e-06 0.350636 10606.2 1 1.62733 0.180936
111 1 0.000224993 8.2009e-06 0.354426 10610.1 1 1.62732 0.180935
112 1 0.000224251 8.73446e-06 0.357909 10613.7 1 1.62731 0.180933
113 1 0.000222892 9.25624e-06 0.36107 10616.9 1 1.62729 0.180931
114 1 0.000220925 9.76421e-06 0.363899 10619.8 1 1.62728 0.180928
115 1 0.000218358 1.02565e-05 0.366393 10622.4 1 1.62727 0.180926
116 1 0.000215204 1.07316e-05 0.36855 10624.6 1 1.62726 0.180922
117 1 0.000211477 1.11878e-05 0.37038 10626.5 1 1.62725 0.180919
118 1 0.000207194 1.16241e-05 0.371894 10628 1 1.62723 0.180916
119 1 0.000202373 1.20392e-05 0.373109 10629.3 1 1.62722 0.180912
120 1 0.000197034 1.24322e-05 0.374049 10630.2 1 1.62721 0.180908
121 1 0.000191201 1.28025e-05 0.37474 10630.9 1 1.6272 0.180903
122 1 0.000184897 1.31493e-05 0.375214 10631.4 1 1.62719 0.180899
123 1 0.000178148 1.34722e-05 0.375505 10631.7 1 1.62718 0.180894
124 1 0.000170982 1.37708e-05 0.375649 10631.9 1 1.62718 0.180889
125 1 0.000163429 1.40445e-05 0.375687 10631.9 1 1.62717 0.180884
126 1 0.00015552 1.4293e-05 0.375658 10631.9 1 1.62716 0.180879
127 1 0.000147289 1.45156e-05 0.375603 10631.8 1 1.62715 0.180874
128 1 0.000138771 1.47117e-05 0.375561 10631.8 1 1.62715 0.180868
129 1 0.000130003 1.48803e-05 0.37557 10631.8 1 1.62714 0.180863
130 1 0.000121026 1.50201e-05 0.375666 10631.9 1 1.62713 0.180857
131 1 0.000111885 1.51294e-05 0.375882 10632.1 1 1.62713 0.180852
132 1 0.000102625 1.52063e-05 0.376245 10632.5 1 1.62712 0.180846
133 1 9.32972e-05 1.52481e-05 0.376779 10633 1 1.62712 0.180841
134 1 8.39579e-05 1.52516e-05 0.377502 10633.8 1 1.62712 0.180835
135 1 7.46673e-05 1.5213e-05 0.378425 10634.7 1 1.62711 0.18083
136 1 6.54922e-05 1.51278e-05 0.379555 10635.9 1 1.62711 0.180825
137 1 5.65057e-05 1.49907e-05 0.380891 10637.2 1 1.62711 0.18082
138 1 4.77884e-05 1.47961e-05 0.382423 10638.8 1 1.62711 0.180815
139 1 3.94286e-05 1.45376e-05 0.384138 10640.6 1 1.62711 0.18081
140 1 3.15227e-05 1.42087e-05 0.386013 10642.5 1 1.62711 0.180806
141 1 2.41753e-05 1.38028e-05 0.388023 10644.6 1 1.62711 0.180802
142 1 1.74978e-05 1.33142e-05 0.390129 10646.7 1 1.62711 0.180799
143 1 1.16076e-05 1.27389e-05 0.392304 10648.9 1 1.62711 0.180796
144 1 6.62185e-06 1.20825e-05 0.394493 10651.2 1 1.62711 0.180793
145 1 2.64117e-06 1.13706e-05 0.396681 10653.4 1 1.62711 0.180791
146 1 -2.7306e-07 1.06485e-05 0.398862 10655.7 1 1.62712 0.18079
147 1 -2.02766e-06 9.70727e-06 0.401236 10658.1 1 1.62712 0.18079
148 1 -2.0322e-06 7.84385e-06 0.402145 10659 1 1.62712 0.18079
149 1 0 0 0.402145 10659 1 1.62712 0.180792
0 2 0 0 0.461948 10720.3 1 1.62707 0.180786
1 2 2.30874e-07 8.00225e-06 0.461948 10720.3 1 1.62707 0.180786
2 2 -9.78318e-07 1.39446e-05 0.461252 10719.6 1 1.62707 0.180785
3 2 -5.80253e-06 1.83422e-05 0.460111 10718.4 1 1.62707 0.180782
4 2 -1.42358e-05 2.21115e-05 0.459481 10717.8 1 1.62707 0.180776
5 2 -2.58155e-05 2.54955e-05 0.458543 10716.8 1 1.62706 0.180769
6 2 -4.01052e-05 2.84678e-05 0.457421 10715.7 1 1.62706 0.180761
7 2 -5.67307e-05 3.09923e-05 0.455928 10714.1 1 1.62706 0.180752
8 2 -7.53267e-05 3.30592e-05 0.454052 10712.2 1 1.62706 0.180742
9 2 -9.553e-05 3.4679e-05 0.451715 10709.8 1 1.62706 0.180731
10 2 -0.000116987 3.58724e-05 0.448898 10706.9 1 1.62706 0.180719
11 2 -0.000139364 3.6665e-05 0.445572 10703.5 1 1.62707 0.180707
12 2 -0.000162347 3.70853e-05 0.441734 10699.6 1 1.62707 0.180695
13 2 -0.000185645 3.71634e-05 0.437386 10695.1 1 1.62707 0.180683
14 2 -0.000208994 3.69299e-05 0.432544 10690.2 1 1.62708 0.180671
15 2 -0.000232152 3.64161e-05 0.427236 10684.7 1 1.62709 0.180659
16 2 -0.000254905 3.5653e-05 0.421498 10678.9 1 1.62709 0.180648
17 2 -0.000277062 3.46718e-05 0.415373 10672.6 1 1.6271 0.180637
18 2 -0.000298456 3.35028e-05 0.408913 10666 1 1.62711 0.180626
19 2 -0.000318946 3.2176e-05 0.402176 10659.1 1 1.62712 0.180616
20 2 -0.000338413 3.07201e-05 0.395224 10651.9 1 1.62713 0.180607
21 2 -0.000356762 2.91629e-05 0.38812 10644.7 1 1.62714 0.180598
22 2 -0.000373916 2.75306e-05 0.380932 10637.3 1 1.62715 0.18059
23 2 -0.000389821 2.58476e-05 0.373725 10629.9 1 1.62716 0.180583
24 2 -0.00040444 2.41366e-05 0.366567 10622.6 1 1.62718 0.180577
25 2 -0.000417753 2.24181e-05 0.35952 10615.3 1 1.62719 0.180571
26 2 -0.000429756 2.07107e-05 0.352645 10608.3 1 1.6272 0.180566
27 2 -0.000440457 1.90305e-05 0.345999 10601.5 1 1.62721 0.180562
28 2 -0.000449876 1.73916e-05 0.339635 10595 1 1.62723 0.180558
29 2 -0.000458044 1.58058e-05 0.3336 10588.8 1 1.62724 0.180555
30 2 -0.000465 1.42827e-05 0.327935 10583 1 1.62725 0.180553
31 2 -0.000470788 1.28299e-05 0.322674 10577.6 1 1.62726 0.180551
32 2 -0.000475458 1.14528e-05 0.317847 10572.6 1 1.62727 0.18055
33 2 -0.000479064 1.01552e-05 0.313477 10568.2 1 1.62729 0.18055
34 2 -0.000481661 8.93908e-06 0.309577 10564.2 1 1.6273 0.18055
35 2 -0.000483306 7.80493e-06 0.306158 10560.7 1 1.62731 0.18055
36 2 -0.000484056 6.75181e-06 0.303222 10557.7 1 1.62732 0.180551
37 2 -0.000483966 5.77757e-06 0.300764 10555.1 1 1.62733 0.180553
38 2 -0.00048309 4.87903e-06 0.298775 10553.1 1 1.62734 0.180554
39 2 -0.000481478 4.05209e-06 0.29724 10551.5 1 1.62735 0.180556
40 2 -0.000479178 3.29192e-06 0.296136 10550.4 1 1.62736 0.180559
41 2 -0.000476235 2.5931e-06 0.295438 10549.7 1 1.62737 0.180562
42 2 -0.000472689 1.94974e-06 0.295116 10549.4 1 1.62738 0.180565
43 2 -0.000468575 1.35564e-06 0.295135 10549.4 1 1.62739 0.180568
44 2 -0.000463925 8.04395e-07 0.295457 10549.7 1 1.6274 0.180572
45 2 -0.000458767 2.89509e-07 0.296042 10550.3 1 1.62741 0.180576
46 2 -0.000453123 -1.95496e-07 0.296847 10551.1 1 1.62742 0.18058
47 2 -0.000447013 -6.56988e-07 0.297827 10552.1 1 1.62743 0.180584
48 2 -0.00044045 -1.10113e-06 0.298938 10553.3 1 1.62744 0.180588
49 2 -0.000433446 -1.53382e-06 0.300133 10554.5 1 1.62745 0.180593
50 2 -0.000426007 -1.96058e-06 0.301367 10555.8 1 1.62745 0.180598
51 2 -0.000418137 -2.38653e-06 0.302596 10557 1 1.62746 0.180603
52 2 -0.000409836 -2.81631e-06 0.303778 10558.2 1 1.62747 0.180609
53 2 -0.000401104 -3.25406e-06 0.304871 10559.4 1 1.62748 0.180614
54 2 -0.000391935 -3.70334e-06 0.305838 10560.3 1 1.62748 0.18062
55 2 -0.000382323 -4.16712e-06 0.306645 10561.2 1 1.62749 0.180626
56 2 -0.000372262 -4.64776e-06 0.30726 10561.8 1 1.6275 0.180632
57 2 -0.000361742 -5.14698e-06 0.307656 10562.2 1 1.6275 0.180639
58 2 -0.000350755 -5.66585e-06 0.307811 10562.4 1 1.62751 0.180646
59 2 -0.000339292 -6.20482e-06 0.307707 10562.3 1 1.62752 0.180653
60 2 -0.000327344 -6.76369e-06 0.307332 10561.9 1 1.62752 0.18066
61 2 -0.000314903 -7.34163e-06 0.306676 10561.2 1 1.62753 0.180667
62 2 -0.000301962 -7.93722e-06 0.305738 10560.2 1 1.62754 0.180675
63 2 -0.000288515 -8.54847e-06 0.304519 10559 1 1.62754 0.180683
64 2 -0.00027456 -9.17285e-06 0.303026 10557.5 1 1.62755 0.180691
65 2 -0.000260093 -9.80731e-06 0.301272 10555.7 1 1.62755 0.1807
66 2 -0.000245117 -1.04484e-05 0.299273 10553.6 1 1.62756 0.180709
67 2 -0.000229635 -1.10921e-05 0.29705 10551.3 1 1.62756 0.180718
68 2 -0.000213653 -1.17343e-05 0.294628 10548.9 1 1.62757 0.180727
69 2 -0.00019718 -1.23704e-05 0.292035 10546.2 1 1.62757 0.180736
70 2 -0.000180229 -1.29955e-05 0.289304 10543.4 1 1.62758 0.180746
71 2 -0.000162817 -1.36047e-05 0.286468 10540.5 1 1.62758 0.180756
72 2 -0.000144961 -1.41929e-05 0.283565 10537.5 1 1.62759 0.180766
73 2 -0.000126686 -1.47548e-05 0.280632 10534.5 1 1.62759 0.180777
74 2 -0.000108018 -1.52852e-05 0.27771 10531.5 1 1.62759 0.180787
75 2 -8.8985e-05 -1.5779e-05 0.274838 10528.6 1 1.62759 0.180798
76 2 -6.9621e-05 -1.6231e-05 0.272058 10525.7 1 1.6276 0.180808
77 2 -4.9962e-05 -1.66363e-05 0.269408 10523 1 1.6276 0.180819
78 2 -3.00471e-05 -1.69903e-05 0.266927 10520.5 1 1.6276 0.18083
79 2 -9.91875e-06 -1.72882e-05 0.264653 10518.1 1 1.6276 0.180841
80 2 1.03782e-05 -1.7526e-05 0.262621 10516.1 1 1.6276 0.180852
81 2 3.0796e-05 -1.76997e-05 0.260864 10514.3 1 1.6276 0.180863
82 2 5.12848e-05 -1.78057e-05 0.259411 10512.8 1 1.6276 0.180874
83 2 7.17923e-05 -1.78409e-05 0.258289 10511.6 1 1.6276 0.180885
84 2 9.22644e-05 -1.78025e-05 0.257521 10510.8 1 1.62759 0.180896
85 2 0.000112645 -1.7688e-05 0.257126 10510.4 1 1.62759 0.180907
86 2 0.000132878 -1.74958e-05 0.257118 10510.4 1 1.62759 0.180917
87 2 0.000152905 -1.72242e-05 0.257509 10510.8 1 1.62759 0.180928
88 2 0.000172666 -1.68724e-05 0.258304 10511.6 1 1.62758 0.180938
89 2 0.000192102 -1.64399e-05 0.259504 10512.9 1 1.62758 0.180948
90 2 0.000211154 -1.59268e-05 0.261106 10514.5 1 1.62757 0.180958
91 2 0.000229762 -1.53335e-05 0.263104 10516.6 1 1.62756 0.180967
92 2 0.000247866 -1.46611e-05 0.265483 10519 1 1.62756 0.180976
93 2 0.000265409 -1.3911e-05 0.268229 10521.8 1 1.62755 0.180985
94 2 0.000282332 -1.30852e-05 0.27132 10525 1 1.62754 0.180993
95 2 0.000298579 -1.21862e-05 0.274733 10528.5 1 1.62753 0.181001
96 2 0.000314096 -1.12168e-05 0.278438 10532.3 1 1.62752 0.181008
97 2 0.000328831 -1.01803e-05 0.282407 10536.3 1 1.62752 0.181015
98 2 0.000342732 -9.08042e-06 0.286603 10540.6 1 1.62751 0.181021
99 2 0.000355751 -7.92127e-06 0.290992 10545.1 1 1.6275 0.181027
100 2 0.000367844 -6.70731e-06 0.295536 10549.8 1 1.62749 0.181032
101 2 0.000378968 -5.44334e-06 0.300195 10554.6 1 1.62747 0.181037
102 2 0.000389083 -4.13445e-06 0.304929 10559.4 1 1.62746 0.181041
103 2 0.000398154 -2.78601e-06 0.309697 10564.3 1 1.62745 0.181045
104 2 0.00040615 -1.40363e-06 0.31446 10569.2 1 1.62744 0.181048
105 2 0.000413041 6.90494e-09 0.319177 10574 1 1.62743 0.18105
106 2 0.000418804 1.43965e-06 0.323812 10578.8 1 1.62742 0.181052
107 2 0.000423419 2.88855e-06 0.328327 10583.4 1 1.6274 0.181053
108 2 0.000426871 4.34749e-06 0.332688 10587.9 1 1.62739 0.181053
109 2 0.000429148 5.81032e-06 0.336866 10592.1 1 1.62738 0.181053
110 2 0.000430243 7.27096e-06 0.340831 10596.2 1 1.62737 0.181052
111 2 0.000430156 8.72337e-06 0.344561 10600 1 1.62736 0.181051
112 2 0.000428888 1.01616e-05 0.348035 10603.6 1 1.62734 0.181048
113 2 0.000426446 1.15801e-05 0.351238 10606.9 1 1.62733 0.181046
114 2 0.000422843 1.29731e-05 0.35416 10609.9 1 1.62732 0.181042
115 2 0.000418095 1.43354e-05 0.356794 10612.6 1 1.62731 0.181038
116 2 0.000412223 1.5662e-05 0.359139 10615 1 1.6273 0.181034
117 2 0.000405251 1.69481e-05 0.3612 10617.1 1 1.62729 0.181029
118 2 0.000397209 1.81894e-05 0.362985 10618.9 1 1.62728 0.181023
119 2 0.000388131 1.93817e-05 0.364507 10620.5 1 1.62727 0.181017
120 2 0.000378054 2.05211e-05 0.365785 10621.8 1 1.62726 0.18101
121 2 0.000367019 2.1604e-05 0.366839 10622.8 1 1.62725 0.181003
122 2 0.000355072 2.2627e-05 0.367695 10623.7 1 1.62724 0.180995
123 2 0.000342261 2.35869e-05 0.368382 10624.4 1 1.62723 0.180987
124 2 0.00032864 2.44804e-05 0.368931 10625 1 1.62722 0.180979
125 2 0.000314266 2.53042e-05 0.369373 10625.4 1 1.62721 0.18097
126 2 0.000299198 2.60549e-05 0.369744 10625.8 1 1.6272 0.180961
127 2 0.000283502 2.67288e-05 0.370076 10626.2 1 1.6272 0.180952
128 2 0.000267247 2.73217e-05 0.370404 10626.5 1 1.62719 0.180942
129 2 0.000250509 2.78289e-05 0.370759 10626.9 1 1.62718 0.180932
130 2 0.000233366 2.82447e-05 0.371172 10627.3 1 1.62718 0.180922
131 2 0.000215905 2.85626e-05 0.37167 10627.8 1 1.62717 0.180912
132 2 0.000198219 2.87752e-05 0.372277 10628.4 1 1.62717 0.180902
133 2 0.000180408 2.88734e-05 0.373013 10629.2 1 1.62717 0.180892
134 2 0.000162582 2.88471e-05 0.373892 10630.1 1 1.62716 0.180882
135 2 0.00014486 2.86844e-05 0.374924 10631.1 1 1.62716 0.180872
136 2 0.000127372 2.83719e-05 0.376113 10632.4 1 1.62716 0.180862
137 2 0.000110258 2.78948e-05 0.377456 10633.7 1 1.62715 0.180853
138 2 9.36732e-05 2.72368e-05 0.378945 10635.3 1 1.62715 0.180844
139 2 7.7785e-05 2.63804e-05 0.380568 10636.9 1 1.62715 0.180835
140 2 6.27742e-05 2.53081e-05 0.3823 10638.7 1 1.62715 0.180827
141 2 4.88349e-05 2.40031e-05 0.384122 10640.6 1 1.62715 0.18082
142 2 3.61721e-05 2.24519e-05 0.38599 10642.5 1 1.62715 0.180813
143 2 2.4996e-05 2.06478e-05 0.387889 10644.4 1 1.62715 0.180807
144 2 1.55174e-05 1.85996e-05 0.389732 10646.3 1 1.62716 0.180803
145 2 7.95623e-06 1.63325e-05 0.39156 10648.2 1 1.62716 0.180799
146 2 2.59703e-06 1.38491e-05 0.393106 10649.8 1 1.62716 0.180797
147 2 -2.27208e-07 1.08757e-05 0.394972 10651.7 1 1.62716 0.180795
148 2 -5.276e-07 6.48996e-06 0.395966 10652.7 1 1.62716 0.180796
149 2 0 0 0.395966 10652.7 1 1.62716 0.180796
0 3 0 0 0.453056 10711.2 1 1.62712 0.180791
1 3 -1.36702e-06 8.82272e-06 0.453056 10711.2 1 1.62712 0.180791
2 3 -5.0566e-06 1.81908e-05 0.452491 10710.6 1 1.62712 0.180788
3 3 -1.2911e-05 2.66318e-05 0.45186 10710 1 1.62712 0.180783
4 3 -2.51495e-05 3.42919e-05 0.451317 10709.4 1 1.62712 0.180776
5 3 -4.14841e-05 4.11088e-05 0.450157 10708.2 1 1.62712 0.180766
6 3 -6.14717e-05 4.70725e-05 0.448887 10706.9 1 1.62711 0.180755
7 3 -8.46291e-05 5.21531e-05 0.447203 10705.2 1 1.62711 0.180742
8 3 -0.000110468 5.63478e-05 0.44517 10703.1 1 1.62711 0.180728
9 3 -0.00013851 5.96762e-05 0.442691 10700.6 1 1.62711 0.180712
10 3 -0.000168291 6.21757e-05 0.439766 10697.6 1 1.62712 0.180696
11 3 -0.000199371 6.3894e-05 0.436363 10694.1 1 1.62712 0.180679
12 3 -0.000231329 6.48847e-05 0.432485 10690.1 1 1.62712 0.180662
13 3 -0.000263779 6.52049e-05 0.428135 10685.7 1 1.62713 0.180645
14 3 -0.000296361 6.49137e-05 0.423332 10680.7 1 1.62713 0.180628
15 3 -0.000328748 6.4071e-05 0.418101 10675.4 1 1.62714 0.180611
16 3 -0.000360646 6.2737e-05 0.412479 10669.6 1 1.62714 0.180595
17 3 -0.000391793 6.09716e-05 0.406509 10663.5 1 1.62715 0.180579
18 3 -0.000421958 5.88338e-05 0.400239 10657.1 1 1.62716 0.180564
19 3 -0.000450944 5.6381e-05 0.393726 10650.4 1 1.62717 0.180549
20 3 -0.000478584 5.3669e-05 0.387026 10643.5 1 1.62718 0.180535
21 3 -0.000504741 5.0751e-05 0.380201 10636.5 1 1.62719 0.180522
22 3 -0.000529304 4.76774e-05 0.373314 10629.5 1 1.6272 0.18051
23 3 -0.000552191 4.44952e-05 0.366425 10622.4 1 1.62721 0.180499
24 3 -0.000573344 4.12479e-05 0.359596 10615.4 1 1.62722 0.180489
25 3 -0.000592728 3.7975e-05 0.352885 10608.6 1 1.62723 0.18048
26 3 -0.000610328 3.47118e-05 0.346347 10601.9 1 1.62724 0.180472
27 3 -0.000626146 3.14896e-05 0.340034 10595.4 1 1.62725 0.180465
28 3 -0.000640203 2.83351e-05 0.333993 10589.2 1 1.62726 0.180459
29 3 -0.00065253 2.52709e-05 0.328265 10583.3 1 1.62728 0.180454
30 3 -0.000663173 2.23156e-05 0.322886 10577.8 1 1.62729 0.180449
31 3 -0.000672183 1.94837e-05 0.317887 10572.7 1 1.6273 0.180446
32 3 -0.000679621 1.67859e-05 0.313291 10568 1 1.62731 0.180443
33 3 -0.000685554 1.42294e-05 0.309117 10563.7 1 1.62732 0.180442
34 3 -0.00069005 1.18184e-05 0.305378 10559.9 1 1.62733 0.180441
35 3 -0.00069318 9.55404e-06 0.302079 10556.5 1 1.62734 0.18044
36 3 -0.000695015 7.43487e-06 0.29922 10553.6 1 1.62735 0.180441
37 3 -0.000695625 5.45722e-06 0.296796 10551.1 1 1.62737 0.180442
38 3 -0.000695079 3.61547e-06 0.294797 10549 1 1.62738 0.180443
39 3 -0.000693442 1.90235e-06 0.293206 10547.4 1 1.62739 0.180445
40 3 -0.000690775 3.09259e-07 0.292003 10546.2 1 1.6274 0.180448
41 3 -0.000687136 -1.17347e-06 0.291165 10545.3 1 1.62741 0.180451
42 3 -0.000682578 -2.55631e-06 0.290662 10544.8 1 1.62742 0.180455
43 3 -0.000677147 -3.85026e-06 0.290463 10544.6 1 1.62742 0.180459
44 3 -0.000670887 -5.06668e-06 0.290533 10544.7 1 1.62743 0.180463
45 3 -0.000663832 -6.21699e-06 0.290836 10545 1 1.62744 0.180468
46 3 -0.000656016 -7.31258e-06 0.291334 10545.5 1 1.62745 0.180473
47 3 -0.000647464 -8.36456e-06 0.291987 10546.1 1 1.62746 0.180479
48 3 -0.000638197 -9.38361e-06 0.292755 10546.9 1 1.62747 0.180485
49 3 -0.00062823 -1.03799e-05 0.293598 10547.8 1 1.62748 0.180491
50 3 -0.000617577 -1.13629e-05 0.294476 10548.7 1 1.62748 0.180498
51 3 -0.000606245 -1.23412e-05 0.295351 10549.6 1 1.62749 0.180505
52 3 -0.000594237 -1.33227e-05 0.296186 10550.5 1 1.6275 0.180513
53 3 -0.000581555 -1.43143e-05 0.296945 10551.2 1 1.62751 0.18052
54 3 -0.000568196 -1.53216e-05 0.297597 10551.9 1 1.62751 0.180528