Title="LBM for phase change with fin"
dt=1 dx=1
VARIABLES="X","Y","U","V","T","H","fl","pa","Test"
ZONE T="BOX",I=150,J=150,F=POINT
0 0 0 0 0.506408 10765.9 1 1.59511 0.177235
1 0 0 0 0.513966 10773.6 1 1.59511 0.177235
2 0 0 0 0.514973 10774.6 1 1.59511 0.177234
3 0 0 0 0.51542 10775.1 1 1.5951 0.177233
4 0 0 0 0.516264 10776 1 1.5951 0.177233
5 0 0 0 0.517031 10776.7 1 1.5951 0.177232
6 0 0 0 0.517393 10777.1 1 1.5951 0.177232
7 0 0 0 0.517143 10776.9 1 1.59509 0.177232
8 0 0 0 0.516136 10775.8 1 1.59509 0.177231
9 0 0 0 0.514254 10773.9 1 1.59509 0.177231
10 0 0 0 0.511414 10771 1 1.5951 0.177232
11 0 0 0 0.507562 10767 1 1.5951 0.177232
12 0 0 0 0.50267 10762 1 1.59511 0.177233
13 0 0 0 0.496736 10756 1 1.59511 0.177233
14 0 0 0 0.489782 10748.8 1 1.59512 0.177234
15 0 0 0 0.481854 10740.7 1 1.59513 0.177235
16 0 0 0 0.473016 10731.6 1 1.59514 0.177236
17 0 0 0 0.463352 10721.7 1 1.59515 0.177238
18 0 0 0 0.452961 10711.1 1 1.59516 0.177239
19 0 0 0 0.441956 10699.8 1 1.59517 0.177241
20 0 0 0 0.430462 10688 1 1.59519 0.177242
21 0 0 0 0.418609 10675.9 1 1.5952 0.177244
22 0 0 0 0.406534 10663.5 1 1.59521 0.177245
23 0 0 0 0.394375 10651.1 1 1.59523 0.177247
24 0 0 0 0.382272 10638.7 1 1.59524 0.177249
25 0 0 0 0.37036 10626.5 1 1.59526 0.177251
26 0 0 0 0.358771 10614.6 1 1.59527 0.177252
27 0 0 0 0.347629 10603.2 1 1.59529 0.177254
28 0 0 0 0.33705 10592.3 1 1.5953 0.177256
29 0 0 0 0.32714 10582.2 1 1.59532 0.177257
30 0 0 0 0.317994 10572.8 1 1.59533 0.177259
31 0 0 0 0.309692 10564.3 1 1.59534 0.17726
32 0 0 0 0.302304 10556.7 1 1.59536 0.177262
33 0 0 0 0.295882 10550.1 1 1.59537 0.177263
34 0 0 0 0.290467 10544.6 1 1.59538 0.177265
35 0 0 0 0.286083 10540.1 1 1.59539 0.177266
36 0 0 0 0.282739 10536.7 1 1.5954 0.177267
37 0 0 0 0.280429 10534.3 1 1.59541 0.177268
38 0 0 0 0.279134 10533 1 1.59542 0.177269
39 0 0 0 0.278819 10532.7 1 1.59543 0.177271
40 0 0 0 0.279435 10533.3 1 1.59544 0.177271
41 0 0 0 0.280922 10534.8 1 1.59545 0.177272
42 0 0 0 0.283207 10537.2 1 1.59546 0.177273
43 0 0 0 0.286206 10540.2 1 1.59547 0.177274
44 0 0 0 0.289827 10543.9 1 1.59547 0.177275
45 0 0 0 0.29397 10548.2 1 1.59548 0.177276
46 0 0 0 0.298525 10552.8 1 1.59549 0.177276
47 0 0 0 0.303382 10557.8 1 1.59549 0.177277
48 0 0 0 0.308426 10563 1 1.5955 0.177278
49 0 0 0 0.313539 10568.2 1 1.59551 0.177279
50 0 0 0 0.318605 10573.4 1 1.59551 0.177279
51 0 0 0 0.323511 10578.5 1 1.59552 0.17728
52 0 0 0 0.328147 10583.2 1 1.59553 0.177281
53 0 0 0 0.332407 10587.6 1 1.59554 0.177282
54 0 0 0 0.336195 10591.4 1 1.59554 0.177283
55 0 0 0 0.339423 10594.8 1 1.59555 0.177283
56 0 0 0 0.342012 10597.4 1 1.59556 0.177284
57 0 0 0 0.343896 10599.3 1 1.59557 0.177285
58 0 0 0 0.34502 10600.5 1 1.59557 0.177286
59 0 0 0 0.345342 10600.8 1 1.59558 0.177287
60 0 0 0 0.344834 10600.3 1 1.59559 0.177288
61 0 0 0 0.343482 10598.9 1 1.5956 0.177289
62 0 0 0 0.341288 10596.7 1 1.59561 0.17729
63 0 0 0 0.338264 10593.6 1 1.59562 0.177291
64 0 0 0 0.33444 10589.6 1 1.59563 0.177293
65 0 0 0 0.329856 10585 1 1.59564 0.177294
66 0 0 0 0.324565 10579.5 1 1.59565 0.177295
67 0 0 0 0.318634 10573.5 1 1.59566 0.177296
68 0 0 0 0.312138 10566.8 1 1.59567 0.177297
69 0 0 0 0.305161 10559.6 1 1.59569 0.177299
70 0 0 0 0.297795 10552.1 1 1.5957 0.1773
71 0 0 0 0.29014 10544.3 1 1.59571 0.177301
72 0 0 0 0.282298 10536.2 1 1.59572 0.177303
73 0 0 0 0.274376 10528.1 1 1.59573 0.177304
74 0 0 0 0.266482 10520 1 1.59574 0.177305
75 0 0 0 0.258723 10512.1 1 1.59575 0.177306
76 0 0 0 0.251205 10504.4 1 1.59576 0.177307
77 0 0 0 0.24403 10497 1 1.59577 0.177308
78 0 0 0 0.237294 10490.1 1 1.59578 0.17731
79 0 0 0 0.231089 10483.7 1 1.59579 0.177311
80 0 0 0 0.225495 10478 1 1.5958 0.177312
81 0 0 0 0.220587 10473 1 1.59581 0.177312
82 0 0 0 0.216426 10468.7 1 1.59582 0.177313
83 0 0 0 0.213066 10465.3 1 1.59582 0.177314
84 0 0 0 0.210545 10462.7 1 1.59583 0.177315
85 0 0 0 0.20889 10461 1 1.59584 0.177316
86 0 0 0 0.208115 10460.2 1 1.59584 0.177316
87 0 0 0 0.208219 10460.3 1 1.59585 0.177317
88 0 0 0 0.209191 10461.3 1 1.59585 0.177318
89 0 0 0 0.211004 10463.2 1 1.59586 0.177318
90 0 0 0 0.213618 10465.8 1 1.59586 0.177319
91 0 0 0 0.216982 10469.3 1 1.59587 0.177319
92 0 0 0 0.221032 10473.4 1 1.59587 0.17732
93 0 0 0 0.225696 10478.2 1 1.59588 0.17732
94 0 0 0 0.23089 10483.5 1 1.59588 0.17732
95 0 0 0 0.236521 10489.3 1 1.59588 0.177321
96 0 0 0 0.242492 10495.4 1 1.59588 0.177321
97 0 0 0 0.248697 10501.8 1 1.59589 0.177321
98 0 0 0 0.25503 10508.3 1 1.59589 0.177322
99 0 0 0 0.261379 10514.8 1 1.59589 0.177322
100 0 0 0 0.267635 10521.2 1 1.5959 0.177322
101 0 0 0 0.273687 10527.4 1 1.5959 0.177323
102 0 0 0 0.279429 10533.3 1 1.5959 0.177323
103 0 0 0 0.28476 10538.7 1 1.59591 0.177323
104 0 0 0 0.289583 10543.7 1 1.59591 0.177324
105 0 0 0 0.293812 10548 1 1.59591 0.177324
106 0 0 0 0.297366 10551.7 1 1.59592 0.177325
107 0 0 0 0.300178 10554.5 1 1.59592 0.177325
108 0 0 0 0.302191 10556.6 1 1.59593 0.177326
109 0 0 0 0.30336 10557.8 1 1.59593 0.177326
110 0 0 0 0.303653 10558.1 1 1.59594 0.177327
111 0 0 0 0.303053 10557.5 1 1.59594 0.177327
112 0 0 0 0.301555 10556 1 1.59595 0.177328
113 0 0 0 0.299168 10553.5 1 1.59595 0.177329
114 0 0 0 0.295916 10550.2 1 1.59596 0.177329
115 0 0 0 0.291834 10546 1 1.59597 0.17733
116 0 0 0 0.28697 10541 1 1.59597 0.177331
117 0 0 0 0.281386 10535.3 1 1.59598 0.177332
118 0 0 0 0.275153 10528.9 1 1.59599 0.177332
119 0 0 0 0.26835 10521.9 1 1.59599 0.177333
120 0 0 0 0.261067 10514.5 1 1.596 0.177334
121 0 0 0 0.253401 10506.6 1 1.59601 0.177335
122 0 0 0 0.245451 10498.5 1 1.59601 0.177335
123 0 0 0 0.237324 10490.1 1 1.59602 0.177336
124 0 0 0 0.229127 10481.7 1 1.59603 0.177337
125 0 0 0 0.220966 10473.4 1 1.59603 0.177338
126 0 0 0 0.21295 10465.2 1 1.59604 0.177338
127 0 0 0 0.205182 10457.2 1 1.59604 0.177339
128 0 0 0 0.197761 10449.6 1 1.59605 0.177339
129 0 0 0 0.19078 10442.4 1 1.59605 0.17734
130 0 0 0 0.184325 10435.8 1 1.59606 0.17734
131 0 0 0 0.178474 10429.8 1 1.59606 0.177341
132 0 0 0 0.173292 10424.5 1 1.59606 0.177341
133 0 0 0 0.168835 10420 1 1.59607 0.177341
134 0 0 0 0.165146 10416.2 1 1.59607 0.177341
135 0 0 0 0.162253 10413.2 1 1.59607 0.177342
136 0 0 0 0.160172 10411.1 1 1.59607 0.177342
137 0 0 0 0.158903 10409.8 1 1.59607 0.177342
138 0 0 0 0.158429 10409.3 1 1.59607 0.177342
139 0 0 0 0.158722 10409.6 1 1.59607 0.177342
140 0 0 0 0.159731 10410.6 1 1.59607 0.177341
141 0 0 0 0.161397 10412.3 1 1.59607 0.177341
142 0 0 0 0.163634 10414.6 1 1.59607 0.177341
143 0 0 0 0.166358 10417.4 1 1.59606 0.177341
144 0 0 0 0.169439 10420.6 1 1.59606 0.17734
145 0 0 0 0.172786 10424 1 1.59606 0.17734
146 0 0 0 0.176269 10427.6 1 1.59606 0.17734
147 0 0 0 0.179989 10431.4 1 1.59606 0.17734
148 0 0 0 0.182046 10433.5 1 1.59606 0.17734
149 0 0 0 0.176181 10427.5 1 1.59606 0.17734
0 1 0 0 0.506408 10765.9 1 1.59511 0.177235
1 1 2.43457e-06 1.0015e-05 0.506408 10765.9 1 1.59511 0.177236
2 1 1.98643e-06 1.27845e-05 0.506581 10766 1 1.59511 0.177235
3 1 -1.24399e-06 1.44774e-05 0.506223 10765.7 1 1.5951 0.177233
4 1 -6.51587e-06 1.58651e-05 0.5063 10765.8 1 1.5951 0.177229
5 1 -1.36352e-05 1.71661e-05 0.506351 10765.8 1 1.5951 0.177225
6 1 -2.24235e-05 1.83112e-05 0.506062 10765.5 1 1.5951 0.17722
7 1 -3.2649e-05 1.92634e-05 0.505235 10764.7 1 1.59509 0.177214
8 1 -4.40608e-05 2.00138e-05 0.503734 10763.1 1 1.59509 0.177208
9 1 -5.64117e-05 2.05668e-05 0.501448 10760.8 1 1.59509 0.177201
10 1 -6.94653e-05 2.09306e-05 0.498303 10757.6 1 1.5951 0.177195
11 1 -8.29995e-05 2.11153e-05 0.494247 10753.4 1 1.5951 0.177188
12 1 -9.68075e-05 2.11324e-05 0.489256 10748.3 1 1.59511 0.177181
13 1 -0.0001107 2.09948e-05 0.483331 10742.2 1 1.59511 0.177175
14 1 -0.000124504 2.07163e-05 0.476494 10735.2 1 1.59512 0.177168
15 1 -0.000138067 2.03114e-05 0.468786 10727.3 1 1.59513 0.177162
16 1 -0.000151252 1.97951e-05 0.460271 10718.6 1 1.59514 0.177156
17 1 -0.000163943 1.91829e-05 0.451026 10709.1 1 1.59515 0.177151
18 1 -0.00017604 1.84905e-05 0.441144 10699 1 1.59516 0.177146
19 1 -0.000187465 1.77336e-05 0.43073 10688.3 1 1.59517 0.177141
20 1 -0.000198154 1.69277e-05 0.419898 10677.2 1 1.59519 0.177137
21 1 -0.000208062 1.60878e-05 0.408769 10665.8 1 1.5952 0.177133
22 1 -0.00021716 1.52285e-05 0.397468 10654.2 1 1.59521 0.17713
23 1 -0.000225434 1.43634e-05 0.386121 10642.6 1 1.59523 0.177127
24 1 -0.000232884 1.35051e-05 0.374854 10631.1 1 1.59524 0.177125
25 1 -0.000239523 1.26652e-05 0.36379 10619.7 1 1.59526 0.177123
26 1 -0.000245374 1.18542e-05 0.353046 10608.7 1 1.59527 0.177122
27 1 -0.000250473 1.10811e-05 0.342734 10598.1 1 1.59529 0.177121
28 1 -0.000254859 1.03538e-05 0.332956 10588.1 1 1.5953 0.17712
29 1 -0.000258583 9.67882e-06 0.323805 10578.8 1 1.59532 0.17712
30 1 -0.000261697 9.06123e-06 0.315363 10570.1 1 1.59533 0.17712
31 1 -0.00026426 8.50499e-06 0.307701 10562.3 1 1.59534 0.17712
32 1 -0.000266332 8.01276e-06 0.300877 10555.3 1 1.59536 0.17712
33 1 -0.000267974 7.58602e-06 0.294935 10549.2 1 1.59537 0.177121
34 1 -0.000269248 7.22517e-06 0.289908 10544 1 1.59538 0.177122
35 1 -0.000270214 6.92957e-06 0.285813 10539.8 1 1.59539 0.177122
36 1 -0.000270931 6.69764e-06 0.282655 10536.6 1 1.5954 0.177123
37 1 -0.000271455 6.52696e-06 0.280426 10534.3 1 1.59541 0.177124
38 1 -0.000271839 6.41431e-06 0.279104 10532.9 1 1.59542 0.177125
39 1 -0.000272131 6.35583e-06 0.278655 10532.5 1 1.59543 0.177126
40 1 -0.000272377 6.34704e-06 0.279033 10532.9 1 1.59544 0.177127
41 1 -0.000272615 6.38297e-06 0.280181 10534.1 1 1.59545 0.177127
42 1 -0.00027288 6.45824e-06 0.282031 10535.9 1 1.59546 0.177128
43 1 -0.000273201 6.56713e-06 0.284508 10538.5 1 1.59547 0.177129
44 1 -0.000273603 6.70368e-06 0.287526 10541.6 1 1.59547 0.177129
45 1 -0.000274102 6.86179e-06 0.290994 10545.1 1 1.59548 0.17713
46 1 -0.000274712 7.03528e-06 0.294816 10549 1 1.59549 0.17713
47 1 -0.00027544 7.21799e-06 0.298892 10553.2 1 1.59549 0.177131
48 1 -0.000276289 7.40386e-06 0.303119 10557.6 1 1.5955 0.177131
49 1 -0.000277256 7.58702e-06 0.307393 10561.9 1 1.59551 0.177131
50 1 -0.000278333 7.76185e-06 0.311611 10566.3 1 1.59551 0.177131
51 1 -0.000279509 7.92306e-06 0.315673 10570.4 1 1.59552 0.177132
52 1 -0.000280769 8.06577e-06 0.319483 10574.3 1 1.59553 0.177132
53 1 -0.000282094 8.18556e-06 0.322948 10577.9 1 1.59554 0.177132
54 1 -0.000283462 8.27852e-06 0.325986 10581 1 1.59554 0.177132
55 1 -0.000284848 8.34134e-06 0.328519 10583.6 1 1.59555 0.177132
56 1 -0.000286227 8.37129e-06 0.330481 10585.6 1 1.59556 0.177132
57 1 -0.000287571 8.36629e-06 0.331814 10587 1 1.59557 0.177132
58 1 -0.000288851 8.32491e-06 0.332473 10587.6 1 1.59557 0.177133
59 1 -0.00029004 8.24638e-06 0.332423 10587.6 1 1.59558 0.177133
60 1 -0.000291108 8.1306e-06 0.331643 10586.8 1 1.59559 0.177133
61 1 -0.000292029 7.97813e-06 0.330122 10585.2 1 1.5956 0.177134
62 1 -0.000292775 7.79014e-06 0.327865 10582.9 1 1.59561 0.177135
63 1 -0.000293323 7.5684e-06 0.324886 10579.9 1 1.59562 0.177135
64 1 -0.00029365 7.31524e-06 0.321213 10576.1 1 1.59563 0.177136
65 1 -0.000293735 7.0335e-06 0.316884 10571.7 1 1.59564 0.177138
66 1 -0.000293562 6.72645e-06 0.31195 10566.6 1 1.59565 0.177139
67 1 -0.000293117 6.39779e-06 0.306468 10561 1 1.59566 0.17714
68 1 -0.000292389 6.05149e-06 0.300509 10554.9 1 1.59567 0.177142
69 1 -0.000291369 5.69182e-06 0.294147 10548.4 1 1.59569 0.177144
70 1 -0.000290054 5.32322e-06 0.287466 10541.5 1 1.5957 0.177146
71 1 -0.000288444 4.95023e-06 0.280553 10534.4 1 1.59571 0.177148
72 1 -0.000286542 4.57746e-06 0.273499 10527.2 1 1.59572 0.17715
73 1 -0.000284352 4.20947e-06 0.266399 10519.9 1 1.59573 0.177153
74 1 -0.000281886 3.85074e-06 0.259347 10512.7 1 1.59574 0.177155
75 1 -0.000279156 3.50556e-06 0.252436 10505.6 1 1.59575 0.177158
76 1 -0.000276176 3.17803e-06 0.24576 10498.8 1 1.59576 0.17716
77 1 -0.000272966 2.87196e-06 0.239406 10492.3 1 1.59577 0.177163
78 1 -0.000269545 2.59081e-06 0.233458 10486.2 1 1.59578 0.177166
79 1 -0.000265935 2.33767e-06 0.227995 10480.6 1 1.59579 0.177169
80 1 -0.000262161 2.11523e-06 0.223085 10475.5 1 1.5958 0.177172
81 1 -0.000258248 1.92568e-06 0.218793 10471.1 1 1.59581 0.177175
82 1 -0.000254221 1.77075e-06 0.21517 10467.4 1 1.59582 0.177178
83 1 -0.000250108 1.65165e-06 0.212259 10464.5 1 1.59582 0.177181
84 1 -0.000245935 1.56906e-06 0.210093 10462.2 1 1.59583 0.177184
85 1 -0.000241729 1.52312e-06 0.208694 10460.8 1 1.59584 0.177187
86 1 -0.000237515 1.51343e-06 0.208069 10460.2 1 1.59584 0.17719
87 1 -0.000233319 1.53906e-06 0.208219 10460.3 1 1.59585 0.177193
88 1 -0.000229163 1.59855e-06 0.209128 10461.2 1 1.59585 0.177196
89 1 -0.00022507 1.68992e-06 0.210772 10462.9 1 1.59586 0.177198
90 1 -0.000221059 1.81073e-06 0.213113 10465.3 1 1.59586 0.177201
91 1 -0.000217148 1.95808e-06 0.216106 10468.4 1 1.59587 0.177204
92 1 -0.000213351 2.12867e-06 0.219692 10472.1 1 1.59587 0.177206
93 1 -0.000209681 2.31884e-06 0.223805 10476.3 1 1.59588 0.177208
94 1 -0.000206145 2.52461e-06 0.228371 10481 1 1.59588 0.177211
95 1 -0.00020275 2.74175e-06 0.233307 10486 1 1.59588 0.177213
96 1 -0.000199498 2.96585e-06 0.238527 10491.4 1 1.59588 0.177215
97 1 -0.000196389 3.19239e-06 0.243938 10496.9 1 1.59589 0.177217
98 1 -0.000193417 3.41678e-06 0.249445 10502.6 1 1.59589 0.177219
99 1 -0.000190577 3.63444e-06 0.254951 10508.2 1 1.59589 0.177221
100 1 -0.000187856 3.84093e-06 0.260358 10513.7 1 1.5959 0.177222
101 1 -0.000185242 4.03191e-06 0.265571 10519.1 1 1.5959 0.177224
102 1 -0.000182719 4.20334e-06 0.270496 10524.1 1 1.5959 0.177226
103 1 -0.000180266 4.35145e-06 0.275046 10528.8 1 1.59591 0.177227
104 1 -0.000177864 4.47283e-06 0.279136 10533 1 1.59591 0.177229
105 1 -0.000175488 4.56451e-06 0.282691 10536.6 1 1.59591 0.177231
106 1 -0.000173116 4.624e-06 0.285642 10539.6 1 1.59592 0.177232
107 1 -0.00017072 4.64932e-06 0.287931 10542 1 1.59592 0.177234
108 1 -0.000168275 4.63906e-06 0.289509 10543.6 1 1.59593 0.177236
109 1 -0.000165754 4.59236e-06 0.290339 10544.5 1 1.59593 0.177238
110 1 -0.000163131 4.509e-06 0.290394 10544.5 1 1.59594 0.17724
111 1 -0.000160381 4.38935e-06 0.289661 10543.8 1 1.59594 0.177242
112 1 -0.000157479 4.23438e-06 0.288136 10542.2 1 1.59595 0.177244
113 1 -0.000154402 4.04566e-06 0.285829 10539.8 1 1.59595 0.177246
114 1 -0.000151131 3.82534e-06 0.282763 10536.7 1 1.59596 0.177249
115 1 -0.000147645 3.57611e-06 0.27897 10532.8 1 1.59597 0.177252
116 1 -0.000143931 3.30116e-06 0.274495 10528.2 1 1.59597 0.177254
117 1 -0.000139975 3.00414e-06 0.26939 10523 1 1.59598 0.177257
118 1 -0.00013577 2.68915e-06 0.263721 10517.2 1 1.59599 0.17726
119 1 -0.000131309 2.36059e-06 0.257558 10510.9 1 1.59599 0.177263
120 1 -0.000126591 2.02321e-06 0.25098 10504.1 1 1.596 0.177267
121 1 -0.00012162 1.68198e-06 0.244072 10497.1 1 1.59601 0.17727
122 1 -0.000116402 1.34204e-06 0.236923 10489.7 1 1.59601 0.177274
123 1 -0.000110948 1.00863e-06 0.229626 10482.2 1 1.59602 0.177277
124 1 -0.000105275 6.87056e-07 0.222274 10474.7 1 1.59603 0.177281
125 1 -9.94021e-05 3.82587e-07 0.214961 10467.2 1 1.59603 0.177285
126 1 -9.3353e-05 1.0041e-07 0.207782 10459.9 1 1.59604 0.177289
127 1 -8.71563e-05 -1.54435e-07 0.200825 10452.7 1 1.59604 0.177292
128 1 -8.0844e-05 -3.77112e-07 0.194178 10445.9 1 1.59605 0.177296
129 1 -7.44523e-05 -5.63053e-07 0.187921 10439.5 1 1.59605 0.1773
130 1 -6.80208e-05 -7.08004e-07 0.182129 10433.6 1 1.59606 0.177304
131 1 -6.15924e-05 -8.08083e-07 0.176868 10428.2 1 1.59606 0.177308
132 1 -5.52132e-05 -8.59825e-07 0.172195 10423.4 1 1.59606 0.177312
133 1 -4.8932e-05 -8.6023e-07 0.168157 10419.3 1 1.59607 0.177315
134 1 -4.28001e-05 -8.06812e-07 0.16479 10415.8 1 1.59607 0.177319
135 1 -3.68707e-05 -6.97638e-07 0.162119 10413.1 1 1.59607 0.177322
136 1 -3.1199e-05 -5.31387e-07 0.160153 10411.1 1 1.59607 0.177325
137 1 -2.58409e-05 -3.07404e-07 0.158893 10409.8 1 1.59607 0.177328
138 1 -2.08533e-05 -2.57819e-08 0.158322 10409.2 1 1.59607 0.177331
139 1 -1.62927e-05 3.12539e-07 0.158411 10409.3 1 1.59607 0.177333
140 1 -1.22148e-05 7.05593e-07 0.159114 10410 1 1.59607 0.177335
141 1 -8.67334e-06 1.15002e-06 0.160376 10411.3 1 1.59607 0.177337
142 1 -5.71777e-06 1.64041e-06 0.162119 10413.1 1 1.59607 0.177338
143 1 -3.39057e-06 2.16812e-06 0.164265 10415.3 1 1.59606 0.177339
144 1 -1.72241e-06 2.72192e-06 0.166696 10417.8 1 1.59606 0.17734
145 1 -7.26547e-07 3.28565e-06 0.169327 10420.5 1 1.59606 0.17734
146 1 -3.82444e-07 3.82435e-06 0.172044 10423.2 1 1.59606 0.17734
147 1 -5.50494e-07 4.13257e-06 0.174958 10426.2 1 1.59606 0.17734
148 1 -6.62685e-07 3.64202e-06 0.176181 10427.5 1 1.59606 0.17734
149 1 0 0 0.176181 10427.5 1 1.59606 0.17734
0 2 0 0 0.497785 10757 1 1.59516 0.177241
1 2 1.24991e-07 8.7815e-06 0.497785 10757 1 1.59516 0.177241
2 2 -1.45432e-06 1.54525e-05 0.497235 10756.5 1 1.59516 0.177239
3 2 -7.13244e-06 2.04782e-05 0.496447 10755.7 1 1.59516 0.177235
4 2 -1.68878e-05 2.48e-05 0.49626 10755.5 1 1.59516 0.17723
5 2 -3.01932e-05 2.86588e-05 0.495745 10754.9 1 1.59515 0.177222
6 2 -4.65416e-05 3.20202e-05 0.494953 10754.1 1 1.59515 0.177213
7 2 -6.54901e-05 3.48432e-05 0.493627 10752.8 1 1.59515 0.177202
8 2 -8.66053e-05 3.71173e-05 0.491702 10750.8 1 1.59515 0.177191
9 2 -0.000109456 3.88547e-05 0.489056 10748.1 1 1.59515 0.177179
10 2 -0.000133625 4.00789e-05 0.485638 10744.6 1 1.59516 0.177166
11 2 -0.000158716 4.08203e-05 0.481397 10740.2 1 1.59516 0.177153
12 2 -0.000184357 4.11129e-05 0.476317 10735 1 1.59516 0.17714
13 2 -0.000210208 4.09935e-05 0.470399 10729 1 1.59517 0.177127
14 2 -0.000235957 4.05007e-05 0.463666 10722.1 1 1.59518 0.177114
15 2 -0.000261324 3.96748e-05 0.45616 10714.4 1 1.59518 0.177101
16 2 -0.000286062 3.85568e-05 0.447939 10706 1 1.59519 0.177089
17 2 -0.000309958 3.71883e-05 0.439078 10696.9 1 1.5952 0.177078
18 2 -0.000332828 3.56109e-05 0.429664 10687.2 1 1.59521 0.177067
19 2 -0.000354526 3.38658e-05 0.419794 10677.1 1 1.59522 0.177057
20 2 -0.000374932 3.19932e-05 0.409575 10666.6 1 1.59524 0.177047
21 2 -0.00039396 3.00318e-05 0.399117 10655.9 1 1.59525 0.177039
22 2 -0.000411553 2.80182e-05 0.388534 10645.1 1 1.59526 0.177031
23 2 -0.00042768 2.59868e-05 0.377943 10634.2 1 1.59527 0.177024
24 2 -0.000442335 2.39693e-05 0.367456 10623.5 1 1.59529 0.177018
25 2 -0.000455536 2.1994e-05 0.357183 10613 1 1.5953 0.177012
26 2 -0.000467319 2.00864e-05 0.347231 10602.8 1 1.59531 0.177008
27 2 -0.00047774 1.82684e-05 0.337696 10593 1 1.59533 0.177004
28 2 -0.000486869 1.65583e-05 0.32867 10583.7 1 1.59534 0.177001
29 2 -0.000494787 1.49713e-05 0.320232 10575.1 1 1.59535 0.176998
30 2 -0.000501586 1.35191e-05 0.312455 10567.1 1 1.59537 0.176996
31 2 -0.000507366 1.22101e-05 0.305396 10559.9 1 1.59538 0.176994
32 2 -0.000512229 1.10497e-05 0.299106 10553.4 1 1.59539 0.176993
33 2 -0.000516282 1.00406e-05 0.293619 10547.8 1 1.5954 0.176992
34 2 -0.000519632 9.18258e-06 0.28896 10543 1 1.59541 0.176992
35 2 -0.000522383 8.47325e-06 0.285141 10539.1 1 1.59542 0.176992
36 2 -0.000524638 7.90791e-06 0.282163 10536.1 1 1.59543 0.176992
37 2 -0.000526494 7.48002e-06 0.280015 10533.9 1 1.59544 0.176992
38 2 -0.000528045 7.18131e-06 0.278672 10532.5 1 1.59545 0.176992
39 2 -0.000529374 7.00209e-06 0.278102 10531.9 1 1.59546 0.176992
40 2 -0.000530561 6.93148e-06 0.278259 10532.1 1 1.59547 0.176993
41 2 -0.000531674 6.95758e-06 0.279092 10532.9 1 1.59548 0.176993
42 2 -0.000532774 7.06774e-06 0.280537 10534.4 1 1.59549 0.176993
43 2 -0.000533913 7.24876e-06 0.282524 10536.5 1 1.5955 0.176994
44 2 -0.000535132 7.48708e-06 0.284976 10539 1 1.5955 0.176994
45 2 -0.000536465 7.76898e-06 0.287812 10541.9 1 1.59551 0.176994
46 2 -0.000537934 8.08079e-06 0.290946 10545.1 1 1.59552 0.176994
47 2 -0.000539553 8.40905e-06 0.294287 10548.5 1 1.59553 0.176994
48 2 -0.000541329 8.7407e-06 0.297745 10552 1 1.59553 0.176994
49 2 -0.000543256 9.06324e-06 0.301228 10555.6 1 1.59554 0.176993
50 2 -0.000545325 9.36487e-06 0.304647 10559.1 1 1.59555 0.176993
51 2 -0.000547517 9.63469e-06 0.307913 10562.5 1 1.59555 0.176993
52 2 -0.000549807 9.86277e-06 0.310944 10565.6 1 1.59556 0.176992
53 2 -0.000552163 1.00403e-05 0.31366 10568.4 1 1.59557 0.176992
54 2 -0.000554551 1.01597e-05 0.315989 10570.7 1 1.59558 0.176991
55 2 -0.00055693 1.02146e-05 0.317865 10572.7 1 1.59559 0.176991
56 2 -0.000559257 1.02001e-05 0.319233 10574.1 1 1.59559 0.176991
57 2 -0.000561487 1.01126e-05 0.320045 10574.9 1 1.5956 0.176991
58 2 -0.000563573 9.95002e-06 0.320264 10575.1 1 1.59561 0.17699
59 2 -0.000565468 9.71159e-06 0.319862 10574.7 1 1.59562 0.17699
60 2 -0.000567125 9.39797e-06 0.318823 10573.6 1 1.59563 0.17699
61 2 -0.0005685 9.01113e-06 0.317142 10571.9 1 1.59564 0.176991
62 2 -0.000569549 8.55433e-06 0.314824 10569.5 1 1.59565 0.176991
63 2 -0.000570233 8.032e-06 0.311886 10566.5 1 1.59566 0.176992
64 2 -0.000570515 7.44964e-06 0.308354 10562.9 1 1.59567 0.176993
65 2 -0.000570362 6.81373e-06 0.304265 10558.7 1 1.59568 0.176994
66 2 -0.000569748 6.13156e-06 0.299664 10554 1 1.59569 0.176996
67 2 -0.000568649 5.41113e-06 0.294607 10548.8 1 1.5957 0.176998
68 2 -0.00056705 4.66099e-06 0.289153 10543.2 1 1.59571 0.177
69 2 -0.000564938 3.89009e-06 0.283372 10537.3 1 1.59572 0.177002
70 2 -0.000562309 3.10762e-06 0.277337 10531.1 1 1.59573 0.177004
71 2 -0.000559162 2.32289e-06 0.271124 10524.8 1 1.59574 0.177007
72 2 -0.000555504 1.54515e-06 0.264815 10518.3 1 1.59575 0.17701
73 2 -0.000551346 7.83489e-07 0.25849 10511.8 1 1.59576 0.177014
74 2 -0.000546706 4.66725e-08 0.252233 10505.4 1 1.59577 0.177017
75 2 -0.000541606 -6.56977e-07 0.246124 10499.2 1 1.59578 0.177021
76 2 -0.000536072 -1.31969e-06 0.240243 10493.1 1 1.59579 0.177025
77 2 -0.000530136 -1.93435e-06 0.234666 10487.4 1 1.59579 0.17703
78 2 -0.000523832 -2.49461e-06 0.229464 10482.1 1 1.5958 0.177034
79 2 -0.000517199 -2.99495e-06 0.224702 10477.2 1 1.59581 0.177038
80 2 -0.000510277 -3.43075e-06 0.22044 10472.8 1 1.59582 0.177043
81 2 -0.000503108 -3.79838e-06 0.216729 10469 1 1.59583 0.177048
82 2 -0.000495737 -4.09519e-06 0.213614 10465.8 1 1.59584 0.177053
83 2 -0.000488209 -4.31961e-06 0.21113 10463.3 1 1.59584 0.177057
84 2 -0.000480567 -4.47109e-06 0.209301 10461.4 1 1.59585 0.177062
85 2 -0.000472857 -4.55019e-06 0.208144 10460.2 1 1.59586 0.177067
86 2 -0.00046512 -4.55851e-06 0.207664 10459.7 1 1.59586 0.177072
87 2 -0.000457399 -4.49869e-06 0.207857 10459.9 1 1.59587 0.177076
88 2 -0.000449731 -4.37437e-06 0.208708 10460.8 1 1.59587 0.177081
89 2 -0.000442153 -4.19018e-06 0.210194 10462.3 1 1.59588 0.177086
90 2 -0.000434695 -3.95161e-06 0.21228 10464.5 1 1.59588 0.17709
91 2 -0.000427387 -3.665e-06 0.214922 10467.2 1 1.59589 0.177095
92 2 -0.000420252 -3.3374e-06 0.21807 10470.4 1 1.59589 0.177099
93 2 -0.000413308 -2.97652e-06 0.221665 10474.1 1 1.5959 0.177103
94 2 -0.000406569 -2.5906e-06 0.225639 10478.2 1 1.5959 0.177107
95 2 -0.000400043 -2.18826e-06 0.22992 10482.5 1 1.59591 0.177111
96 2 -0.000393733 -1.77842e-06 0.234432 10487.2 1 1.59591 0.177115
97 2 -0.000387636 -1.37015e-06 0.239093 10491.9 1 1.59591 0.177118
98 2 -0.000381744 -9.72503e-07 0.243821 10496.8 1 1.59592 0.177122
99 2 -0.000376044 -5.94403e-07 0.24853 10501.6 1 1.59592 0.177125
100 2 -0.000370516 -2.44489e-07 0.253136 10506.3 1 1.59592 0.177128
101 2 -0.000365137 6.90262e-08 0.257557 10510.9 1 1.59593 0.177132
102 2 -0.000359879 3.38496e-07 0.261711 10515.1 1 1.59593 0.177135
103 2 -0.000354709 5.56966e-07 0.265522 10519 1 1.59593 0.177138
104 2 -0.000349591 7.183e-07 0.268919 10522.5 1 1.59594 0.177141
105 2 -0.000344488 8.17289e-07 0.271837 10525.5 1 1.59594 0.177144
106 2 -0.000339356 8.49744e-07 0.274218 10527.9 1 1.59595 0.177148
107 2 -0.000334155 8.12577e-07 0.276013 10529.8 1 1.59595 0.177151
108 2 -0.000328839 7.03867e-07 0.27718 10531 1 1.59596 0.177154
109 2 -0.000323367 5.22898e-07 0.277689 10531.5 1 1.59596 0.177158
110 2 -0.000317693 2.70188e-07 0.277518 10531.3 1 1.59597 0.177161
111 2 -0.000311778 -5.25079e-08 0.276657 10530.4 1 1.59597 0.177165
112 2 -0.00030558 -4.4221e-07 0.275106 10528.9 1 1.59598 0.177169
113 2 -0.000299065 -8.94751e-07 0.272875 10526.6 1 1.59598 0.177173
114 2 -0.000292199 -1.40482e-06 0.269984 10523.6 1 1.59599 0.177177
115 2 -0.000284953 -1.96604e-06 0.266463 10520 1 1.59599 0.177182
116 2 -0.000277304 -2.57105e-06 0.262353 10515.8 1 1.596 0.177187
117 2 -0.000269233 -3.21156e-06 0.257701 10511 1 1.59601 0.177192
118 2 -0.00026073 -3.87854e-06 0.252563 10505.8 1 1.59601 0.177197
119 2 -0.000251787 -4.56224e-06 0.247004 10500.1 1 1.59602 0.177202
120 2 -0.000242406 -5.25238e-06 0.241091 10494 1 1.59602 0.177208
121 2 -0.000232595 -5.93825e-06 0.2349 10487.7 1 1.59603 0.177214
122 2 -0.00022237 -6.60882e-06 0.228507 10481.1 1 1.59604 0.17722
123 2 -0.000211752 -7.2529e-06 0.221994 10474.4 1 1.59604 0.177226
124 2 -0.000200772 -7.85924e-06 0.21544 10467.7 1 1.59605 0.177233
125 2 -0.000189468 -8.41668e-06 0.208929 10461 1 1.59605 0.17724
126 2 -0.000177883 -8.91425e-06 0.20254 10454.5 1 1.59606 0.177246
127 2 -0.00016607 -9.3413e-06 0.196352 10448.2 1 1.59606 0.177253
128 2 -0.000154087 -9.68761e-06 0.190437 10442.1 1 1.59607 0.17726
129 2 -0.000141998 -9.9435e-06 0.184866 10436.4 1 1.59607 0.177267
130 2 -0.000129875 -1.00999e-05 0.179702 10431.1 1 1.59607 0.177274
131 2 -0.000117795 -1.01486e-05 0.175002 10426.3 1 1.59608 0.17728
132 2 -0.000105839 -1.00821e-05 0.170812 10422 1 1.59608 0.177287
133 2 -9.40932e-05 -9.89378e-06 0.167174 10418.3 1 1.59608 0.177294
134 2 -8.26482e-05 -9.57829e-06 0.164116 10415.1 1 1.59608 0.1773
135 2 -7.15973e-05 -9.13126e-06 0.161658 10412.6 1 1.59608 0.177306
136 2 -6.10363e-05 -8.54965e-06 0.159808 10410.7 1 1.59608 0.177311
137 2 -5.10621e-05 -7.83189e-06 0.158563 10409.4 1 1.59609 0.177317
138 2 -4.17719e-05 -6.97813e-06 0.157907 10408.8 1 1.59609 0.177322
139 2 -3.32614e-05 -5.99057e-06 0.157812 10408.7 1 1.59608 0.177326
140 2 -2.56229e-05 -4.87416e-06 0.158236 10409.1 1 1.59608 0.17733
141 2 -1.89423e-05 -3.63765e-06 0.159129 10410 1 1.59608 0.177333
142 2 -1.32951e-05 -2.29527e-06 0.160413 10411.3 1 1.59608 0.177336
143 2 -8.74033e-06 -8.7028e-07 0.162026 10413 1 1.59608 0.177338
144 2 -5.30902e-06 5.99634e-07 0.16383 10414.8 1 1.59608 0.17734
145 2 -2.97592e-06 2.04499e-06 0.165792 10416.8 1 1.59608 0.177341
146 2 -1.59387e-06 3.31124e-06 0.167575 10418.7 1 1.59608 0.177341
147 2 -8.40191e-07 3.9829e-06 0.169669 10420.8 1 1.59608 0.177342
148 2 -3.20083e-07 3.13327e-06 0.170765 10421.9 1 1.59608 0.177342
149 2 0 0 0.170765 10421.9 1 1.59608 0.177342
0 3 0 0 0.487694 10746.7 1 1.59522 0.177246
1 3 -1.69424e-06 9.9155e-06 0.487694 10746.7 1 1.59522 0.177245
2 3 -6.11078e-06 2.05161e-05 0.487211 10746.2 1 1.59522 0.177242
3 3 -1.52651e-05 3.01158e-05 0.486773 10745.7 1 1.59521 0.177237
4 3 -2.9356e-05 3.88172e-05 0.486463 10745.4 1 1.59521 0.177228
5 3 -4.8033e-05 4.65242e-05 0.485501 10744.4 1 1.59521 0.177218
6 3 -7.07746e-05 5.32155e-05 0.484342 10743.3 1 1.59521 0.177205
7 3 -9.70139e-05 5.88556e-05 0.48262 10741.5 1 1.59521 0.177191
8 3 -0.000126178 6.34417e-05 0.480359 10739.2 1 1.59521 0.177175
9 3 -0.000157705 6.69967e-05 0.477423 10736.2 1 1.59521 0.177158
10 3 -0.000191051 6.95645e-05 0.473783 10732.4 1 1.59521 0.177141
11 3 -0.000225698 7.12018e-05 0.469389 10727.9 1 1.59521 0.177122
12 3 -0.000261157 7.19734e-05 0.464236 10722.7 1 1.59522 0.177104
13 3 -0.000296976 7.19495e-05 0.458322 10716.6 1 1.59522 0.177086
14 3 -0.00033274 7.12046e-05 0.451677 10709.8 1 1.59523 0.177067
15 3 -0.000368075 6.98157e-05 0.444339 10702.3 1 1.59524 0.177049
16 3 -0.000402648 6.78618e-05 0.436367 10694.1 1 1.59524 0.177032
17 3 -0.000436169 6.54227e-05 0.427832 10685.3 1 1.59525 0.177015
18 3 -0.000468392 6.2578e-05 0.418817 10676.1 1 1.59526 0.176999
19 3 -0.00049911 5.94062e-05 0.409413 10666.5 1 1.59527 0.176984
20 3 -0.000528162 5.59838e-05 0.39972 10656.5 1 1.59528 0.17697
21 3 -0.000555423 5.23843e-05 0.389841 10646.4 1 1.59529 0.176957
22 3 -0.00058081 4.86772e-05 0.379881 10636.2 1 1.59531 0.176945
23 3 -0.000604272 4.49275e-05 0.369945 10626 1 1.59532 0.176934
24 3 -0.000625794 4.11948e-05 0.360137 10616 1 1.59533 0.176924
25 3 -0.000645389 3.75326e-05 0.350556 10606.2 1 1.59534 0.176915
26 3 -0.000663099 3.39886e-05 0.341296 10596.7 1 1.59535 0.176908
27 3 -0.000678987 3.06036e-05 0.332444 10587.6 1 1.59537 0.176901
28 3 -0.000693137 2.74123e-05 0.32408 10579 1 1.59538 0.176895
29 3 -0.00070565 2.44425e-05 0.316272 10571 1 1.59539 0.17689
30 3 -0.00071664 2.17159e-05 0.309082 10563.7 1 1.5954 0.176885
31 3 -0.000726229 1.92482e-05 0.302558 10557 1 1.59541 0.176881
32 3 -0.000734549 1.70492e-05 0.296742 10551 1 1.59542 0.176878
33 3 -0.000741732 1.51235e-05 0.29166 10545.8 1 1.59544 0.176876
34 3 -0.000747914 1.34705e-05 0.287331 10541.4 1 1.59545 0.176874
35 3 -0.000753229 1.20856e-05 0.283761 10537.7 1 1.59546 0.176872
36 3 -0.000757807 1.09599e-05 0.280946 10534.8 1 1.59547 0.176871
37 3 -0.000761773 1.00812e-05 0.278872 10532.7 1 1.59548 0.17687
38 3 -0.000765245 9.43404e-06 0.277515 10531.3 1 1.59549 0.176869
39 3 -0.000768332 9.00064e-06 0.27684 10530.6 1 1.59549 0.176869
40 3 -0.000771135 8.76098e-06 0.276806 10530.6 1 1.5955 0.176868
41 3 -0.000773743 8.69339e-06 0.277361 10531.2 1 1.59551 0.176868
42 3 -0.000776234 8.7749e-06 0.278448 10532.3 1 1.59552 0.176867
43 3 -0.000778676 8.98168e-06 0.280003 10533.9 1 1.59553 0.176867
44 3 -0.000781124 9.28937e-06 0.281956 10535.9 1 1.59554 0.176867
45 3 -0.00078362 9.6735e-06 0.284232 10538.2 1 1.59554 0.176866
46 3 -0.000786196 1.01098e-05 0.286754 10540.8 1 1.59555 0.176865
47 3 -0.000788872 1.05744e-05 0.289443 10543.5 1 1.59556 0.176865
48 3 -0.000791657 1.10445e-05 0.292218 10546.4 1 1.59557 0.176864
49 3 -0.000794549 1.14982e-05 0.295 10549.2 1 1.59557 0.176863
50 3 -0.000797536 1.19152e-05 0.297708 10552 1 1.59558 0.176863
51 3 -0.000800598 1.22765e-05 0.300267 10554.6 1 1.59559 0.176862
52 3 -0.000803705 1.25654e-05 0.302605 10557 1 1.5956 0.176861
53 3 -0.000806823 1.27668e-05 0.304653 10559.1 1 1.5956 0.17686