Title="LBM for phase change with fin"
dt=1 dx=1
VARIABLES="X","Y","U","V","T","H","fl","pa","Test"
ZONE T="BOX",I=150,J=150,F=POINT
0 0 0 0 -0.000901306 -0.130612 0 0.929002 0.103222
1 0 0 0 -0.000901306 -0.130612 0 0.929002 0.103222
2 0 0 0 -0.000901299 -0.130611 0 0.929002 0.103222
3 0 0 0 -0.000901284 -0.130608 0 0.929002 0.103222
4 0 0 0 -0.000901261 -0.130605 0 0.929002 0.103222
5 0 0 0 -0.00090123 -0.130601 0 0.929002 0.103222
6 0 0 0 -0.000901191 -0.130595 0 0.929002 0.103222
7 0 0 0 -0.000901145 -0.130588 0 0.929002 0.103222
8 0 0 0 -0.000901093 -0.130581 0 0.929002 0.103222
9 0 0 0 -0.000901034 -0.130572 0 0.929002 0.103222
10 0 0 0 -0.000900969 -0.130563 0 0.929002 0.103222
11 0 0 0 -0.000900899 -0.130553 0 0.929003 0.103223
12 0 0 0 -0.000900825 -0.130542 0 0.929003 0.103223
13 0 0 0 -0.000900747 -0.130531 0 0.929003 0.103223
14 0 0 0 -0.000900666 -0.130519 0 0.929003 0.103223
15 0 0 0 -0.000900583 -0.130507 0 0.929003 0.103223
16 0 0 0 -0.000900498 -0.130495 0 0.929003 0.103223
17 0 0 0 -0.000900412 -0.130482 0 0.929004 0.103223
18 0 0 0 -0.000900326 -0.13047 0 0.929004 0.103223
19 0 0 0 -0.00090024 -0.130457 0 0.929004 0.103223
20 0 0 0 -0.000900156 -0.130445 0 0.929004 0.103223
21 0 0 0 -0.000900074 -0.130433 0 0.929004 0.103223
22 0 0 0 -0.000899994 -0.130421 0 0.929005 0.103223
23 0 0 0 -0.000899917 -0.13041 0 0.929005 0.103223
24 0 0 0 -0.000899843 -0.1304 0 0.929005 0.103223
25 0 0 0 -0.000899774 -0.13039 0 0.929005 0.103223
26 0 0 0 -0.000899708 -0.13038 0 0.929006 0.103223
27 0 0 0 -0.000899648 -0.130371 0 0.929006 0.103223
28 0 0 0 -0.000899592 -0.130363 0 0.929006 0.103223
29 0 0 0 -0.000899541 -0.130356 0 0.929007 0.103223
30 0 0 0 -0.000899495 -0.130349 0 0.929007 0.103223
31 0 0 0 -0.000899455 -0.130343 0 0.929007 0.103223
32 0 0 0 -0.00089942 -0.130338 0 0.929008 0.103223
33 0 0 0 -0.00089939 -0.130334 0 0.929008 0.103223
34 0 0 0 -0.000899365 -0.13033 0 0.929009 0.103223
35 0 0 0 -0.000899346 -0.130328 0 0.929009 0.103223
36 0 0 0 -0.000899331 -0.130325 0 0.929009 0.103223
37 0 0 0 -0.000899322 -0.130324 0 0.92901 0.103223
38 0 0 0 -0.000899318 -0.130324 0 0.92901 0.103223
39 0 0 0 -0.000899318 -0.130324 0 0.929011 0.103223
40 0 0 0 -0.000899324 -0.130324 0 0.929011 0.103223
41 0 0 0 -0.000899334 -0.130326 0 0.929011 0.103223
42 0 0 0 -0.00089935 -0.130328 0 0.929012 0.103223
43 0 0 0 -0.00089937 -0.130331 0 0.929012 0.103224
44 0 0 0 -0.000899395 -0.130335 0 0.929013 0.103224
45 0 0 0 -0.000899425 -0.130339 0 0.929013 0.103224
46 0 0 0 -0.000899461 -0.130344 0 0.929014 0.103224
47 0 0 0 -0.000899502 -0.13035 0 0.929014 0.103224
48 0 0 0 -0.000899549 -0.130357 0 0.929015 0.103224
49 0 0 0 -0.000899601 -0.130365 0 0.929016 0.103224
50 0 0 0 -0.00089966 -0.130373 0 0.929016 0.103224
51 0 0 0 -0.000899725 -0.130383 0 0.929017 0.103224
52 0 0 0 -0.000899797 -0.130393 0 0.929017 0.103224
53 0 0 0 -0.000899877 -0.130405 0 0.929018 0.103224
54 0 0 0 -0.000899963 -0.130417 0 0.929018 0.103224
55 0 0 0 -0.000900058 -0.130431 0 0.929019 0.103224
56 0 0 0 -0.00090016 -0.130446 0 0.929019 0.103224
57 0 0 0 -0.000900271 -0.130462 0 0.92902 0.103224
58 0 0 0 -0.00090039 -0.130479 0 0.929021 0.103224
59 0 0 0 -0.000900518 -0.130497 0 0.929021 0.103224
60 0 0 0 -0.000900656 -0.130517 0 0.929022 0.103225
61 0 0 0 -0.000900803 -0.130539 0 0.929023 0.103225
62 0 0 0 -0.000900959 -0.130561 0 0.929023 0.103225
63 0 0 0 -0.000901126 -0.130586 0 0.929024 0.103225
64 0 0 0 -0.000901303 -0.130611 0 0.929024 0.103225
65 0 0 0 -0.000901491 -0.130638 0 0.929025 0.103225
66 0 0 0 -0.000901689 -0.130667 0 0.929026 0.103225
67 0 0 0 -0.000901897 -0.130697 0 0.929026 0.103225
68 0 0 0 -0.000902117 -0.130729 0 0.929027 0.103225
69 0 0 0 -0.000902348 -0.130763 0 0.929028 0.103225
70 0 0 0 -0.000902591 -0.130798 0 0.929028 0.103225
71 0 0 0 -0.000902844 -0.130835 0 0.929029 0.103225
72 0 0 0 -0.00090311 -0.130873 0 0.92903 0.103225
73 0 0 0 -0.000903386 -0.130913 0 0.92903 0.103225
74 0 0 0 -0.000903675 -0.130955 0 0.929031 0.103226
75 0 0 0 -0.000903976 -0.130999 0 0.929032 0.103226
76 0 0 0 -0.000904288 -0.131044 0 0.929032 0.103226
77 0 0 0 -0.000904612 -0.131091 0 0.929033 0.103226
78 0 0 0 -0.000904949 -0.13114 0 0.929034 0.103226
79 0 0 0 -0.000905297 -0.13119 0 0.929034 0.103226
80 0 0 0 -0.000905657 -0.131242 0 0.929035 0.103226
81 0 0 0 -0.00090603 -0.131296 0 0.929036 0.103226
82 0 0 0 -0.000906414 -0.131352 0 0.929036 0.103226
83 0 0 0 -0.00090681 -0.131409 0 0.929037 0.103226
84 0 0 0 -0.000907217 -0.131468 0 0.929038 0.103226
85 0 0 0 -0.000907637 -0.131529 0 0.929038 0.103226
86 0 0 0 -0.000908068 -0.131592 0 0.929039 0.103226
87 0 0 0 -0.00090851 -0.131656 0 0.92904 0.103227
88 0 0 0 -0.000908964 -0.131721 0 0.92904 0.103227
89 0 0 0 -0.000909429 -0.131789 0 0.929041 0.103227
90 0 0 0 -0.000909904 -0.131858 0 0.929041 0.103227
91 0 0 0 -0.000910391 -0.131928 0 0.929042 0.103227
92 0 0 0 -0.000910888 -0.132 0 0.929043 0.103227
93 0 0 0 -0.000911395 -0.132074 0 0.929043 0.103227
94 0 0 0 -0.000911911 -0.132149 0 0.929044 0.103227
95 0 0 0 -0.000912438 -0.132225 0 0.929045 0.103227
96 0 0 0 -0.000912974 -0.132302 0 0.929045 0.103227
97 0 0 0 -0.000913519 -0.132381 0 0.929046 0.103227
98 0 0 0 -0.000914072 -0.132462 0 0.929046 0.103227
99 0 0 0 -0.000914634 -0.132543 0 0.929047 0.103227
100 0 0 0 -0.000915204 -0.132626 0 0.929048 0.103227
101 0 0 0 -0.000915781 -0.132709 0 0.929048 0.103227
102 0 0 0 -0.000916365 -0.132794 0 0.929049 0.103228
103 0 0 0 -0.000916956 -0.132879 0 0.929049 0.103228
104 0 0 0 -0.000917552 -0.132966 0 0.92905 0.103228
105 0 0 0 -0.000918154 -0.133053 0 0.929051 0.103228
106 0 0 0 -0.000918761 -0.133141 0 0.929051 0.103228
107 0 0 0 -0.000919372 -0.13323 0 0.929052 0.103228
108 0 0 0 -0.000919987 -0.133319 0 0.929052 0.103228
109 0 0 0 -0.000920606 -0.133408 0 0.929053 0.103228
110 0 0 0 -0.000921226 -0.133498 0 0.929053 0.103228
111 0 0 0 -0.000921849 -0.133589 0 0.929054 0.103228
112 0 0 0 -0.000922473 -0.133679 0 0.929054 0.103228
113 0 0 0 -0.000923097 -0.133769 0 0.929055 0.103228
114 0 0 0 -0.000923721 -0.13386 0 0.929055 0.103228
115 0 0 0 -0.000924343 -0.13395 0 0.929056 0.103228
116 0 0 0 -0.000924964 -0.13404 0 0.929056 0.103228
117 0 0 0 -0.000925582 -0.13413 0 0.929056 0.103228
118 0 0 0 -0.000926196 -0.134219 0 0.929057 0.103228
119 0 0 0 -0.000926805 -0.134307 0 0.929057 0.103229
120 0 0 0 -0.000927409 -0.134394 0 0.929058 0.103229
121 0 0 0 -0.000928007 -0.134481 0 0.929058 0.103229
122 0 0 0 -0.000928597 -0.134566 0 0.929058 0.103229
123 0 0 0 -0.000929178 -0.134651 0 0.929059 0.103229
124 0 0 0 -0.000929749 -0.134733 0 0.929059 0.103229
125 0 0 0 -0.00093031 -0.134815 0 0.92906 0.103229
126 0 0 0 -0.000930858 -0.134894 0 0.92906 0.103229
127 0 0 0 -0.000931394 -0.134972 0 0.92906 0.103229
128 0 0 0 -0.000931915 -0.135047 0 0.929061 0.103229
129 0 0 0 -0.000932421 -0.135121 0 0.929061 0.103229
130 0 0 0 -0.00093291 -0.135191 0 0.929061 0.103229
131 0 0 0 -0.000933381 -0.13526 0 0.929061 0.103229
132 0 0 0 -0.000933833 -0.135325 0 0.929062 0.103229
133 0 0 0 -0.000934265 -0.135388 0 0.929062 0.103229
134 0 0 0 -0.000934676 -0.135447 0 0.929062 0.103229
135 0 0 0 -0.000935064 -0.135504 0 0.929062 0.103229
136 0 0 0 -0.000935429 -0.135557 0 0.929063 0.103229
137 0 0 0 -0.00093577 -0.135606 0 0.929063 0.103229
138 0 0 0 -0.000936085 -0.135652 0 0.929063 0.103229
139 0 0 0 -0.000936374 -0.135694 0 0.929063 0.103229
140 0 0 0 -0.000936636 -0.135732 0 0.929063 0.103229
141 0 0 0 -0.000936871 -0.135765 0 0.929063 0.103229
142 0 0 0 -0.000937076 -0.135795 0 0.929063 0.103229
143 0 0 0 -0.000937253 -0.135821 0 0.929064 0.103229
144 0 0 0 -0.0009374 -0.135842 0 0.929064 0.103229
145 0 0 0 -0.000937517 -0.135859 0 0.929064 0.103229
146 0 0 0 -0.000937603 -0.135872 0 0.929064 0.103229
147 0 0 0 -0.000937659 -0.13588 0 0.929064 0.103229
148 0 0 0 -0.000937684 -0.135883 0 0.929064 0.103229
149 0 0 0 -0.000937684 -0.135883 0 0.929064 0.103229
0 1 0 0 -0.000901306 -0.130612 0 0.929002 0.103222
1 1 0 0 -0.000901306 -0.130612 0 0.929002 0.103222
2 1 0 0 -0.000901299 -0.130611 0 0.929002 0.103222
3 1 0 0 -0.000901284 -0.130609 0 0.929002 0.103222
4 1 0 0 -0.000901261 -0.130605 0 0.929002 0.103222
5 1 0 0 -0.00090123 -0.130601 0 0.929002 0.103222
6 1 0 0 -0.000901192 -0.130595 0 0.929002 0.103222
7 1 0 0 -0.000901146 -0.130588 0 0.929002 0.103222
8 1 0 0 -0.000901093 -0.130581 0 0.929002 0.103222
9 1 0 0 -0.000901034 -0.130572 0 0.929002 0.103222
10 1 0 0 -0.00090097 -0.130563 0 0.929002 0.103222
11 1 0 0 -0.0009009 -0.130553 0 0.929003 0.103223
12 1 0 0 -0.000900826 -0.130542 0 0.929003 0.103223
13 1 0 0 -0.000900748 -0.130531 0 0.929003 0.103223
14 1 0 0 -0.000900666 -0.130519 0 0.929003 0.103223
15 1 0 0 -0.000900583 -0.130507 0 0.929003 0.103223
16 1 0 0 -0.000900498 -0.130495 0 0.929003 0.103223
17 1 0 0 -0.000900412 -0.130482 0 0.929003 0.103223
18 1 0 0 -0.000900326 -0.13047 0 0.929004 0.103223
19 1 0 0 -0.00090024 -0.130457 0 0.929004 0.103223
20 1 0 0 -0.000900156 -0.130445 0 0.929004 0.103223
21 1 0 0 -0.000900074 -0.130433 0 0.929004 0.103223
22 1 0 0 -0.000899994 -0.130421 0 0.929005 0.103223
23 1 0 0 -0.000899917 -0.13041 0 0.929005 0.103223
24 1 0 0 -0.000899843 -0.1304 0 0.929005 0.103223
25 1 0 0 -0.000899774 -0.13039 0 0.929005 0.103223
26 1 0 0 -0.000899708 -0.13038 0 0.929006 0.103223
27 1 0 0 -0.000899647 -0.130371 0 0.929006 0.103223
28 1 0 0 -0.000899592 -0.130363 0 0.929006 0.103223
29 1 0 0 -0.000899541 -0.130356 0 0.929007 0.103223
30 1 0 0 -0.000899495 -0.130349 0 0.929007 0.103223
31 1 0 0 -0.000899455 -0.130343 0 0.929007 0.103223
32 1 0 0 -0.000899419 -0.130338 0 0.929008 0.103223
33 1 0 0 -0.000899389 -0.130334 0 0.929008 0.103223
34 1 0 0 -0.000899365 -0.13033 0 0.929008 0.103223
35 1 0 0 -0.000899345 -0.130328 0 0.929009 0.103223
36 1 0 0 -0.000899331 -0.130325 0 0.929009 0.103223
37 1 0 0 -0.000899322 -0.130324 0 0.92901 0.103223
38 1 0 0 -0.000899317 -0.130323 0 0.92901 0.103223
39 1 0 0 -0.000899318 -0.130324 0 0.92901 0.103223
40 1 0 0 -0.000899323 -0.130324 0 0.929011 0.103223
41 1 0 0 -0.000899334 -0.130326 0 0.929011 0.103223
42 1 0 0 -0.000899349 -0.130328 0 0.929012 0.103223
43 1 0 0 -0.000899369 -0.130331 0 0.929012 0.103224
44 1 0 0 -0.000899394 -0.130335 0 0.929013 0.103224
45 1 0 0 -0.000899425 -0.130339 0 0.929013 0.103224
46 1 0 0 -0.00089946 -0.130344 0 0.929014 0.103224
47 1 0 0 -0.000899501 -0.13035 0 0.929014 0.103224
48 1 0 0 -0.000899548 -0.130357 0 0.929015 0.103224
49 1 0 0 -0.000899601 -0.130365 0 0.929015 0.103224
50 1 0 0 -0.00089966 -0.130373 0 0.929016 0.103224
51 1 0 0 -0.000899725 -0.130383 0 0.929017 0.103224
52 1 0 0 -0.000899797 -0.130393 0 0.929017 0.103224
53 1 0 0 -0.000899876 -0.130404 0 0.929018 0.103224
54 1 0 0 -0.000899963 -0.130417 0 0.929018 0.103224
55 1 0 0 -0.000900057 -0.130431 0 0.929019 0.103224
56 1 0 0 -0.000900159 -0.130445 0 0.929019 0.103224
57 1 0 0 -0.00090027 -0.130462 0 0.92902 0.103224
58 1 0 0 -0.000900389 -0.130479 0 0.929021 0.103224
59 1 0 0 -0.000900518 -0.130497 0 0.929021 0.103224
60 1 0 0 -0.000900655 -0.130517 0 0.929022 0.103225
61 1 0 0 -0.000900802 -0.130539 0 0.929022 0.103225
62 1 0 0 -0.000900959 -0.130561 0 0.929023 0.103225
63 1 0 0 -0.000901126 -0.130586 0 0.929024 0.103225
64 1 0 0 -0.000901303 -0.130611 0 0.929024 0.103225
65 1 0 0 -0.00090149 -0.130638 0 0.929025 0.103225
66 1 0 0 -0.000901688 -0.130667 0 0.929026 0.103225
67 1 0 0 -0.000901897 -0.130697 0 0.929026 0.103225
68 1 0 0 -0.000902117 -0.130729 0 0.929027 0.103225
69 1 0 0 -0.000902348 -0.130763 0 0.929028 0.103225
70 1 0 0 -0.00090259 -0.130798 0 0.929028 0.103225
71 1 0 0 -0.000902844 -0.130835 0 0.929029 0.103225
72 1 0 0 -0.000903109 -0.130873 0 0.92903 0.103225
73 1 0 0 -0.000903386 -0.130913 0 0.92903 0.103225
74 1 0 0 -0.000903675 -0.130955 0 0.929031 0.103226
75 1 0 0 -0.000903975 -0.130998 0 0.929032 0.103226
76 1 0 0 -0.000904288 -0.131044 0 0.929032 0.103226
77 1 0 0 -0.000904612 -0.131091 0 0.929033 0.103226
78 1 0 0 -0.000904949 -0.13114 0 0.929034 0.103226
79 1 0 0 -0.000905297 -0.13119 0 0.929034 0.103226
80 1 0 0 -0.000905657 -0.131242 0 0.929035 0.103226
81 1 0 0 -0.000906029 -0.131296 0 0.929036 0.103226
82 1 0 0 -0.000906414 -0.131352 0 0.929036 0.103226
83 1 0 0 -0.00090681 -0.131409 0 0.929037 0.103226
84 1 0 0 -0.000907217 -0.131468 0 0.929037 0.103226
85 1 0 0 -0.000907637 -0.131529 0 0.929038 0.103226
86 1 0 0 -0.000908068 -0.131592 0 0.929039 0.103226
87 1 0 0 -0.00090851 -0.131656 0 0.929039 0.103227
88 1 0 0 -0.000908964 -0.131721 0 0.92904 0.103227
89 1 0 0 -0.000909429 -0.131789 0 0.929041 0.103227
90 1 0 0 -0.000909904 -0.131858 0 0.929041 0.103227
91 1 0 0 -0.000910391 -0.131928 0 0.929042 0.103227
92 1 0 0 -0.000910888 -0.132 0 0.929043 0.103227
93 1 0 0 -0.000911395 -0.132074 0 0.929043 0.103227
94 1 0 0 -0.000911912 -0.132149 0 0.929044 0.103227
95 1 0 0 -0.000912438 -0.132225 0 0.929045 0.103227
96 1 0 0 -0.000912974 -0.132303 0 0.929045 0.103227
97 1 0 0 -0.000913519 -0.132381 0 0.929046 0.103227
98 1 0 0 -0.000914073 -0.132462 0 0.929046 0.103227
99 1 0 0 -0.000914634 -0.132543 0 0.929047 0.103227
100 1 0 0 -0.000915204 -0.132626 0 0.929048 0.103227
101 1 0 0 -0.000915781 -0.132709 0 0.929048 0.103227
102 1 0 0 -0.000916365 -0.132794 0 0.929049 0.103228
103 1 0 0 -0.000916956 -0.13288 0 0.929049 0.103228
104 1 0 0 -0.000917552 -0.132966 0 0.92905 0.103228
105 1 0 0 -0.000918154 -0.133053 0 0.92905 0.103228
106 1 0 0 -0.000918761 -0.133141 0 0.929051 0.103228
107 1 0 0 -0.000919373 -0.13323 0 0.929051 0.103228
108 1 0 0 -0.000919988 -0.133319 0 0.929052 0.103228
109 1 0 0 -0.000920606 -0.133408 0 0.929053 0.103228
110 1 0 0 -0.000921227 -0.133498 0 0.929053 0.103228
111 1 0 0 -0.000921849 -0.133589 0 0.929054 0.103228
112 1 0 0 -0.000922473 -0.133679 0 0.929054 0.103228
113 1 0 0 -0.000923097 -0.133769 0 0.929055 0.103228
114 1 0 0 -0.000923721 -0.13386 0 0.929055 0.103228
115 1 0 0 -0.000924343 -0.13395 0 0.929055 0.103228
116 1 0 0 -0.000924964 -0.13404 0 0.929056 0.103228
117 1 0 0 -0.000925582 -0.13413 0 0.929056 0.103228
118 1 0 0 -0.000926196 -0.134219 0 0.929057 0.103228
119 1 0 0 -0.000926806 -0.134307 0 0.929057 0.103229
120 1 0 0 -0.00092741 -0.134394 0 0.929058 0.103229
121 1 0 0 -0.000928007 -0.134481 0 0.929058 0.103229
122 1 0 0 -0.000928597 -0.134566 0 0.929058 0.103229
123 1 0 0 -0.000929178 -0.134651 0 0.929059 0.103229
124 1 0 0 -0.000929749 -0.134733 0 0.929059 0.103229
125 1 0 0 -0.00093031 -0.134815 0 0.929059 0.103229
126 1 0 0 -0.000930859 -0.134894 0 0.92906 0.103229
127 1 0 0 -0.000931394 -0.134972 0 0.92906 0.103229
128 1 0 0 -0.000931915 -0.135047 0 0.92906 0.103229
129 1 0 0 -0.000932421 -0.135121 0 0.929061 0.103229
130 1 0 0 -0.00093291 -0.135191 0 0.929061 0.103229
131 1 0 0 -0.000933381 -0.13526 0 0.929061 0.103229
132 1 0 0 -0.000933833 -0.135325 0 0.929062 0.103229
133 1 0 0 -0.000934265 -0.135388 0 0.929062 0.103229
134 1 0 0 -0.000934676 -0.135447 0 0.929062 0.103229
135 1 0 0 -0.000935065 -0.135504 0 0.929062 0.103229
136 1 0 0 -0.00093543 -0.135557 0 0.929062 0.103229
137 1 0 0 -0.00093577 -0.135606 0 0.929063 0.103229
138 1 0 0 -0.000936086 -0.135652 0 0.929063 0.103229
139 1 0 0 -0.000936375 -0.135694 0 0.929063 0.103229
140 1 0 0 -0.000936637 -0.135732 0 0.929063 0.103229
141 1 0 0 -0.000936871 -0.135766 0 0.929063 0.103229
142 1 0 0 -0.000937077 -0.135795 0 0.929063 0.103229
143 1 0 0 -0.000937253 -0.135821 0 0.929063 0.103229
144 1 0 0 -0.0009374 -0.135842 0 0.929064 0.103229
145 1 0 0 -0.000937517 -0.135859 0 0.929064 0.103229
146 1 0 0 -0.000937604 -0.135872 0 0.929064 0.103229
147 1 0 0 -0.00093766 -0.13588 0 0.929064 0.103229
148 1 0 0 -0.000937684 -0.135883 0 0.929064 0.103229
149 1 0 0 -0.000937684 -0.135883 0 0.929064 0.103229
0 2 0 0 -0.000901317 -0.130613 0 0.929001 0.103222
1 2 0 0 -0.000901317 -0.130613 0 0.929001 0.103222
2 2 0 0 -0.00090131 -0.130612 0 0.929001 0.103222
3 2 0 0 -0.000901295 -0.13061 0 0.929001 0.103222
4 2 0 0 -0.000901272 -0.130607 0 0.929002 0.103222
5 2 0 0 -0.00090124 -0.130602 0 0.929002 0.103222
6 2 0 0 -0.000901201 -0.130596 0 0.929002 0.103222
7 2 0 0 -0.000901155 -0.13059 0 0.929002 0.103222
8 2 0 0 -0.000901102 -0.130582 0 0.929002 0.103222
9 2 0 0 -0.000901042 -0.130573 0 0.929002 0.103222
10 2 0 0 -0.000900977 -0.130564 0 0.929002 0.103222
11 2 0 0 -0.000900907 -0.130554 0 0.929002 0.103222
12 2 0 0 -0.000900832 -0.130543 0 0.929002 0.103222
13 2 0 0 -0.000900753 -0.130531 0 0.929002 0.103222
14 2 0 0 -0.000900671 -0.13052 0 0.929003 0.103223
15 2 0 0 -0.000900587 -0.130507 0 0.929003 0.103223
16 2 0 0 -0.000900501 -0.130495 0 0.929003 0.103223
17 2 0 0 -0.000900414 -0.130482 0 0.929003 0.103223
18 2 0 0 -0.000900327 -0.13047 0 0.929003 0.103223
19 2 0 0 -0.000900241 -0.130457 0 0.929004 0.103223
20 2 0 0 -0.000900155 -0.130445 0 0.929004 0.103223
21 2 0 0 -0.000900072 -0.130433 0 0.929004 0.103223
22 2 0 0 -0.000899991 -0.130421 0 0.929004 0.103223
23 2 0 0 -0.000899914 -0.13041 0 0.929004 0.103223
24 2 0 0 -0.00089984 -0.130399 0 0.929005 0.103223
25 2 0 0 -0.000899769 -0.130389 0 0.929005 0.103223
26 2 0 0 -0.000899704 -0.130379 0 0.929005 0.103223
27 2 0 0 -0.000899642 -0.130371 0 0.929006 0.103223
28 2 0 0 -0.000899586 -0.130362 0 0.929006 0.103223
29 2 0 0 -0.000899535 -0.130355 0 0.929006 0.103223
30 2 0 0 -0.000899489 -0.130348 0 0.929007 0.103223
31 2 0 0 -0.000899448 -0.130342 0 0.929007 0.103223
32 2 0 0 -0.000899413 -0.130337 0 0.929007 0.103223
33 2 0 0 -0.000899382 -0.130333 0 0.929008 0.103223
34 2 0 0 -0.000899358 -0.130329 0 0.929008 0.103223
35 2 0 0 -0.000899338 -0.130326 0 0.929008 0.103223
36 2 0 0 -0.000899324 -0.130324 0 0.929009 0.103223
37 2 0 0 -0.000899314 -0.130323 0 0.929009 0.103223
38 2 0 0 -0.00089931 -0.130322 0 0.92901 0.103223
39 2 0 0 -0.00089931 -0.130322 0 0.92901 0.103223
40 2 0 0 -0.000899316 -0.130323 0 0.929011 0.103223
41 2 0 0 -0.000899326 -0.130325 0 0.929011 0.103223
42 2 0 0 -0.000899341 -0.130327 0 0.929012 0.103223
43 2 0 0 -0.000899361 -0.13033 0 0.929012 0.103223
44 2 0 0 -0.000899386 -0.130333 0 0.929012 0.103224
45 2 0 0 -0.000899417 -0.130338 0 0.929013 0.103224
46 2 0 0 -0.000899452 -0.130343 0 0.929013 0.103224
47 2 0 0 -0.000899493 -0.130349 0 0.929014 0.103224
48 2 0 0 -0.000899539 -0.130356 0 0.929015 0.103224
49 2 0 0 -0.000899592 -0.130363 0 0.929015 0.103224
50 2 0 0 -0.000899651 -0.130372 0 0.929016 0.103224
51 2 0 0 -0.000899716 -0.130381 0 0.929016 0.103224
52 2 0 0 -0.000899788 -0.130392 0 0.929017 0.103224
53 2 0 0 -0.000899867 -0.130403 0 0.929017 0.103224
54 2 0 0 -0.000899953 -0.130416 0 0.929018 0.103224
55 2 0 0 -0.000900047 -0.130429 0 0.929018 0.103224
56 2 0 0 -0.000900149 -0.130444 0 0.929019 0.103224
57 2 0 0 -0.00090026 -0.13046 0 0.92902 0.103224
58 2 0 0 -0.000900379 -0.130477 0 0.92902 0.103224
59 2 0 0 -0.000900507 -0.130496 0 0.929021 0.103224
60 2 0 0 -0.000900645 -0.130516 0 0.929021 0.103225
61 2 0 0 -0.000900792 -0.130537 0 0.929022 0.103225
62 2 0 0 -0.000900948 -0.13056 0 0.929023 0.103225
63 2 0 0 -0.000901115 -0.130584 0 0.929023 0.103225
64 2 0 0 -0.000901292 -0.13061 0 0.929024 0.103225
65 2 0 0 -0.000901479 -0.130637 0 0.929025 0.103225
66 2 0 0 -0.000901678 -0.130665 0 0.929025 0.103225
67 2 0 0 -0.000901886 -0.130696 0 0.929026 0.103225
68 2 0 0 -0.000902106 -0.130728 0 0.929027 0.103225
69 2 0 0 -0.000902337 -0.130761 0 0.929027 0.103225
70 2 0 0 -0.000902579 -0.130796 0 0.929028 0.103225
71 2 0 0 -0.000902833 -0.130833 0 0.929029 0.103225
72 2 0 0 -0.000903099 -0.130871 0 0.929029 0.103225
73 2 0 0 -0.000903375 -0.130912 0 0.92903 0.103225
74 2 0 0 -0.000903664 -0.130953 0 0.929031 0.103226
75 2 0 0 -0.000903965 -0.130997 0 0.929031 0.103226
76 2 0 0 -0.000904277 -0.131042 0 0.929032 0.103226
77 2 0 0 -0.000904602 -0.131089 0 0.929033 0.103226
78 2 0 0 -0.000904938 -0.131138 0 0.929033 0.103226
79 2 0 0 -0.000905287 -0.131188 0 0.929034 0.103226
80 2 0 0 -0.000905647 -0.131241 0 0.929035 0.103226
81 2 0 0 -0.000906019 -0.131295 0 0.929035 0.103226
82 2 0 0 -0.000906404 -0.13135 0 0.929036 0.103226
83 2 0 0 -0.0009068 -0.131408 0 0.929036 0.103226
84 2 0 0 -0.000907208 -0.131467 0 0.929037 0.103226
85 2 0 0 -0.000907628 -0.131528 0 0.929038 0.103226
86 2 0 0 -0.000908059 -0.13159 0 0.929038 0.103226
87 2 0 0 -0.000908501 -0.131654 0 0.929039 0.103226
88 2 0 0 -0.000908955 -0.13172 0 0.92904 0.103227
89 2 0 0 -0.00090942 -0.131788 0 0.92904 0.103227
90 2 0 0 -0.000909896 -0.131856 0 0.929041 0.103227
91 2 0 0 -0.000910383 -0.131927 0 0.929042 0.103227
92 2 0 0 -0.00091088 -0.131999 0 0.929042 0.103227
93 2 0 0 -0.000911387 -0.132073 0 0.929043 0.103227
94 2 0 0 -0.000911904 -0.132148 0 0.929044 0.103227
95 2 0 0 -0.000912431 -0.132224 0 0.929044 0.103227
96 2 0 0 -0.000912968 -0.132302 0 0.929045 0.103227
97 2 0 0 -0.000913513 -0.132381 0 0.929045 0.103227
98 2 0 0 -0.000914067 -0.132461 0 0.929046 0.103227
99 2 0 0 -0.000914629 -0.132542 0 0.929047 0.103227
100 2 0 0 -0.000915199 -0.132625 0 0.929047 0.103227
101 2 0 0 -0.000915777 -0.132709 0 0.929048 0.103227
102 2 0 0 -0.000916361 -0.132793 0 0.929048 0.103228
103 2 0 0 -0.000916952 -0.132879 0 0.929049 0.103228
104 2 0 0 -0.000917549 -0.132965 0 0.92905 0.103228
105 2 0 0 -0.000918152 -0.133053 0 0.92905 0.103228
106 2 0 0 -0.000918759 -0.133141 0 0.929051 0.103228
107 2 0 0 -0.000919371 -0.133229 0 0.929051 0.103228
108 2 0 0 -0.000919986 -0.133319 0 0.929052 0.103228
109 2 0 0 -0.000920605 -0.133408 0 0.929052 0.103228
110 2 0 0 -0.000921227 -0.133498 0 0.929053 0.103228
111 2 0 0 -0.00092185 -0.133589 0 0.929053 0.103228
112 2 0 0 -0.000922474 -0.133679 0 0.929054 0.103228
113 2 0 0 -0.000923099 -0.13377 0 0.929054 0.103228
114 2 0 0 -0.000923723 -0.13386 0 0.929055 0.103228
115 2 0 0 -0.000924347 -0.133951 0 0.929055 0.103228
116 2 0 0 -0.000924968 -0.134041 0 0.929056 0.103228
117 2 0 0 -0.000925586 -0.13413 0 0.929056 0.103228
118 2 0 0 -0.000926201 -0.134219 0 0.929056 0.103228
119 2 0 0 -0.000926812 -0.134308 0 0.929057 0.103228
120 2 0 0 -0.000927417 -0.134395 0 0.929057 0.103229
121 2 0 0 -0.000928015 -0.134482 0 0.929058 0.103229
122 2 0 0 -0.000928605 -0.134568 0 0.929058 0.103229
123 2 0 0 -0.000929188 -0.134652 0 0.929058 0.103229
124 2 0 0 -0.00092976 -0.134735 0 0.929059 0.103229
125 2 0 0 -0.000930321 -0.134816 0 0.929059 0.103229
126 2 0 0 -0.000930871 -0.134896 0 0.929059 0.103229
127 2 0 0 -0.000931407 -0.134974 0 0.92906 0.103229
128 2 0 0 -0.00093193 -0.135049 0 0.92906 0.103229
129 2 0 0 -0.000932436 -0.135123 0 0.92906 0.103229
130 2 0 0 -0.000932926 -0.135194 0 0.929061 0.103229
131 2 0 0 -0.000933398 -0.135262 0 0.929061 0.103229
132 2 0 0 -0.000933852 -0.135328 0 0.929061 0.103229
133 2 0 0 -0.000934285 -0.135391 0 0.929061 0.103229
134 2 0 0 -0.000934696 -0.13545 0 0.929062 0.103229
135 2 0 0 -0.000935086 -0.135507 0 0.929062 0.103229
136 2 0 0 -0.000935452 -0.13556 0 0.929062 0.103229
137 2 0 0 -0.000935793 -0.135609 0 0.929062 0.103229
138 2 0 0 -0.000936109 -0.135655 0 0.929063 0.103229
139 2 0 0 -0.000936399 -0.135697 0 0.929063 0.103229
140 2 0 0 -0.000936662 -0.135735 0 0.929063 0.103229
141 2 0 0 -0.000936896 -0.135769 0 0.929063 0.103229
142 2 0 0 -0.000937103 -0.135799 0 0.929063 0.103229
143 2 0 0 -0.00093728 -0.135825 0 0.929063 0.103229
144 2 0 0 -0.000937427 -0.135846 0 0.929063 0.103229
145 2 0 0 -0.000937544 -0.135863 0 0.929063 0.103229
146 2 0 0 -0.000937631 -0.135876 0 0.929063 0.103229
147 2 0 0 -0.000937687 -0.135884 0 0.929063 0.103229
148 2 0 0 -0.000937712 -0.135887 0 0.929064 0.103229
149 2 0 0 -0.000937712 -0.135887 0 0.929064 0.103229
0 3 0 0 -0.000901341 -0.130617 0 0.929001 0.103222
1 3 0 0 -0.000901342 -0.130617 0 0.929001 0.103222
2 3 0 0 -0.000901335 -0.130616 0 0.929001 0.103222
3 3 0 0 -0.000901319 -0.130614 0 0.929001 0.103222
4 3 0 0 -0.000901296 -0.13061 0 0.929001 0.103222
5 3 0 0 -0.000901263 -0.130605 0 0.929001 0.103222
6 3 0 0 -0.000901224 -0.1306 0 0.929001 0.103222
7 3 0 0 -0.000901176 -0.130593 0 0.929001 0.103222
8 3 0 0 -0.000901122 -0.130585 0 0.929001 0.103222
9 3 0 0 -0.000901061 -0.130576 0 0.929001 0.103222
10 3 0 0 -0.000900994 -0.130566 0 0.929002 0.103222
11 3 0 0 -0.000900922 -0.130556 0 0.929002 0.103222
12 3 0 0 -0.000900845 -0.130545 0 0.929002 0.103222
13 3 0 0 -0.000900765 -0.130533 0 0.929002 0.103222
14 3 0 0 -0.000900681 -0.130521 0 0.929002 0.103222
15 3 0 0 -0.000900595 -0.130509 0 0.929002 0.103222
16 3 0 0 -0.000900507 -0.130496 0 0.929002 0.103222
17 3 0 0 -0.000900418 -0.130483 0 0.929003 0.103223
18 3 0 0 -0.000900329 -0.13047 0 0.929003 0.103223
19 3 0 0 -0.000900241 -0.130457 0 0.929003 0.103223
20 3 0 0 -0.000900154 -0.130445 0 0.929003 0.103223
21 3 0 0 -0.000900069 -0.130432 0 0.929003 0.103223
22 3 0 0 -0.000899987 -0.13042 0 0.929004 0.103223
23 3 0 0 -0.000899907 -0.130409 0 0.929004 0.103223
24 3 0 0 -0.000899832 -0.130398 0 0.929004 0.103223
25 3 0 0 -0.00089976 -0.130388 0 0.929005 0.103223
26 3 0 0 -0.000899693 -0.130378 0 0.929005 0.103223
27 3 0 0 -0.000899631 -0.130369 0 0.929005 0.103223
28 3 0 0 -0.000899573 -0.130361 0 0.929005 0.103223
29 3 0 0 -0.000899521 -0.130353 0 0.929006 0.103223
30 3 0 0 -0.000899474 -0.130346 0 0.929006 0.103223
31 3 0 0 -0.000899433 -0.13034 0 0.929006 0.103223
32 3 0 0 -0.000899397 -0.130335 0 0.929007 0.103223
33 3 0 0 -0.000899367 -0.130331 0 0.929007 0.103223
34 3 0 0 -0.000899342 -0.130327 0 0.929008 0.103223
35 3 0 0 -0.000899322 -0.130324 0 0.929008 0.103223
36 3 0 0 -0.000899307 -0.130322 0 0.929008 0.103223
37 3 0 0 -0.000899297 -0.130321 0 0.929009 0.103223
38 3 0 0 -0.000899293 -0.13032 0 0.929009 0.103223
39 3 0 0 -0.000899293 -0.13032 0 0.92901 0.103223
40 3 0 0 -0.000899299 -0.130321 0 0.92901 0.103223
41 3 0 0 -0.000899309 -0.130322 0 0.929011 0.103223
42 3 0 0 -0.000899324 -0.130324 0 0.929011 0.103223
43 3 0 0 -0.000899343 -0.130327 0 0.929011 0.103223
44 3 0 0 -0.000899368 -0.130331 0 0.929012 0.103223
45 3 0 0 -0.000899398 -0.130335 0 0.929012 0.103224
46 3 0 0 -0.000899433 -0.13034 0 0.929013 0.103224
47 3 0 0 -0.000899474 -0.130346 0 0.929014 0.103224
48 3 0 0 -0.00089952 -0.130353 0 0.929014 0.103224
49 3 0 0 -0.000899572 -0.13036 0 0.929015 0.103224
50 3 0 0 -0.000899631 -0.130369 0 0.929015 0.103224
51 3 0 0 -0.000899695 -0.130378 0 0.929016 0.103224
52 3 0 0 -0.000899767 -0.130389 0 0.929016 0.103224
53 3 0 0 -0.000899845 -0.1304 0 0.929017 0.103224
54 3 0 0 -0.000899931 -0.130412 0 0.929017 0.103224
55 3 0 0 -0.000900025 -0.130426 0 0.929018 0.103224
56 3 0 0 -0.000900127 -0.130441 0 0.929019 0.103224
57 3 0 0 -0.000900237 -0.130457 0 0.929019 0.103224
58 3 0 0 -0.000900356 -0.130474 0 0.92902 0.103224
59 3 0 0 -0.000900484 -0.130493 0 0.92902 0.103224
60 3 0 0 -0.000900621 -0.130512 0 0.929021 0.103224
61 3 0 0 -0.000900768 -0.130534 0 0.929022 0.103225
62 3 0 0 -0.000900925 -0.130556 0 0.929022 0.103225
63 3 0 0 -0.000901091 -0.130581 0 0.929023 0.103225
64 3 0 0 -0.000901268 -0.130606 0 0.929023 0.103225
65 3 0 0 -0.000901455 -0.130633 0 0.929024 0.103225
66 3 0 0 -0.000901653 -0.130662 0 0.929025 0.103225
67 3 0 0 -0.000901862 -0.130692 0 0.929025 0.103225
68 3 0 0 -0.000902082 -0.130724 0 0.929026 0.103225
69 3 0 0 -0.000902313 -0.130758 0 0.929027 0.103225
70 3 0 0 -0.000902555 -0.130793 0 0.929027 0.103225
71 3 0 0 -0.000902809 -0.130829 0 0.929028 0.103225
72 3 0 0 -0.000903074 -0.130868 0 0.929029 0.103225
73 3 0 0 -0.000903351 -0.130908 0 0.929029 0.103225
74 3 0 0 -0.00090364 -0.13095 0 0.92903 0.103225
75 3 0 0 -0.000903941 -0.130993 0 0.929031 0.103226
76 3 0 0 -0.000904254 -0.131039 0 0.929031 0.103226
77 3 0 0 -0.000904578 -0.131086 0 0.929032 0.103226
78 3 0 0 -0.000904915 -0.131135 0 0.929033 0.103226
79 3 0 0 -0.000905264 -0.131185 0 0.929033 0.103226
80 3 0 0 -0.000905624 -0.131237 0 0.929034 0.103226
81 3 0 0 -0.000905997 -0.131291 0 0.929035 0.103226
82 3 0 0 -0.000906382 -0.131347 0 0.929035 0.103226
83 3 0 0 -0.000906778 -0.131405 0 0.929036 0.103226
84 3 0 0 -0.000907186 -0.131464 0 0.929037 0.103226
85 3 0 0 -0.000907607 -0.131525 0 0.929037 0.103226
86 3 0 0 -0.000908038 -0.131587 0 0.929038 0.103226
87 3 0 0 -0.000908481 -0.131651 0 0.929039 0.103226
88 3 0 0 -0.000908936 -0.131717 0 0.929039 0.103226
89 3 0 0 -0.000909401 -0.131785 0 0.92904 0.103227
90 3 0 0 -0.000909878 -0.131854 0 0.929041 0.103227
91 3 0 0 -0.000910365 -0.131924 0 0.929041 0.103227
92 3 0 0 -0.000910863 -0.131997 0 0.929042 0.103227
93 3 0 0 -0.000911371 -0.13207 0 0.929043 0.103227
94 3 0 0 -0.000911889 -0.132145 0 0.929043 0.103227
95 3 0 0 -0.000912416 -0.132222 0 0.929044 0.103227
96 3 0 0 -0.000912953 -0.132299 0 0.929044 0.103227
97 3 0 0 -0.000913499 -0.132379 0 0.929045 0.103227
98 3 0 0 -0.000914054 -0.132459 0 0.929046 0.103227
99 3 0 0 -0.000914617 -0.132541 0 0.929046 0.103227
100 3 0 0 -0.000915188 -0.132623 0 0.929047 0.103227
101 3 0 0 -0.000915766 -0.132707 0 0.929047 0.103227
102 3 0 0 -0.000916352 -0.132792 0 0.929048 0.103227
103 3 0 0 -0.000916944 -0.132878 0 0.929049 0.103228
104 3 0 0 -0.000917542 -0.132964 0 0.929049 0.103228
105 3 0 0 -0.000918145 -0.133052 0 0.92905 0.103228
106 3 0 0 -0.000918754 -0.13314 0 0.92905 0.103228
107 3 0 0 -0.000919367 -0.133229 0 0.929051 0.103228
108 3 0 0 -0.000919984 -0.133318 0 0.929051 0.103228
109 3 0 0 -0.000920604 -0.133408 0 0.929052 0.103228
110 3 0 0 -0.000921226 -0.133498 0 0.929052 0.103228
111 3 0 0 -0.000921851 -0.133589 0 0.929053 0.103228
112 3 0 0 -0.000922477 -0.13368 0 0.929053 0.103228
113 3 0 0 -0.000923103 -0.13377 0 0.929054 0.103228
114 3 0 0 -0.000923729 -0.133861 0 0.929054 0.103228
115 3 0 0 -0.000924353 -0.133952 0 0.929055 0.103228
116 3 0 0 -0.000924976 -0.134042 0 0.929055 0.103228
117 3 0 0 -0.000925597 -0.134132 0 0.929056 0.103228
118 3 0 0 -0.000926213 -0.134221 0 0.929056 0.103228
119 3 0 0 -0.000926825 -0.13431 0 0.929056 0.103228
120 3 0 0 -0.000927432 -0.134398 0 0.929057 0.103228
121 3 0 0 -0.000928032 -0.134485 0 0.929057 0.103229
122 3 0 0 -0.000928625 -0.134571 0 0.929058 0.103229
123 3 0 0 -0.000929209 -0.134655 0 0.929058 0.103229
124 3 0 0 -0.000929783 -0.134738 0 0.929058 0.103229