Title="LBM for phase change with fin"
dt=1 dx=1
VARIABLES="X","Y","U","V","T","H","fl","pa","Test"
ZONE T="BOX",I=150,J=150,F=POINT
0 0 0 0 -0.0014038 -1.81953 0 0.517481 0.0574979
1 0 0 0 -0.0014038 -1.81953 0 0.517481 0.0574979
2 0 0 0 -0.00140381 -1.81954 0 0.517481 0.0574979
3 0 0 0 -0.00140383 -1.81957 0 0.517481 0.0574979
4 0 0 0 -0.00140388 -1.81963 0 0.517481 0.0574979
5 0 0 0 -0.00140394 -1.81971 0 0.517481 0.0574979
6 0 0 0 -0.00140402 -1.81981 0 0.517481 0.0574979
7 0 0 0 -0.00140412 -1.81994 0 0.517481 0.0574979
8 0 0 0 -0.00140423 -1.8201 0 0.517481 0.0574979
9 0 0 0 -0.00140437 -1.82027 0 0.517481 0.0574979
10 0 0 0 -0.00140452 -1.82047 0 0.517481 0.0574979
11 0 0 0 -0.0014047 -1.82069 0 0.517481 0.0574979
12 0 0 0 -0.00140489 -1.82094 0 0.517481 0.0574979
13 0 0 0 -0.00140509 -1.82121 0 0.517481 0.0574979
14 0 0 0 -0.00140532 -1.8215 0 0.517481 0.0574979
15 0 0 0 -0.00140556 -1.82181 0 0.517481 0.0574979
16 0 0 0 -0.00140581 -1.82214 0 0.517481 0.0574979
17 0 0 0 -0.00140608 -1.82249 0 0.517481 0.0574979
18 0 0 0 -0.00140637 -1.82287 0 0.517481 0.0574979
19 0 0 0 -0.00140668 -1.82326 0 0.517481 0.0574979
20 0 0 0 -0.00140699 -1.82367 0 0.517482 0.0574979
21 0 0 0 -0.00140733 -1.8241 0 0.517482 0.057498
22 0 0 0 -0.00140767 -1.82455 0 0.517482 0.057498
23 0 0 0 -0.00140803 -1.82502 0 0.517482 0.057498
24 0 0 0 -0.0014084 -1.8255 0 0.517482 0.057498
25 0 0 0 -0.00140879 -1.82599 0 0.517482 0.057498
26 0 0 0 -0.00140918 -1.8265 0 0.517482 0.057498
27 0 0 0 -0.00140958 -1.82703 0 0.517482 0.057498
28 0 0 0 -0.00140999 -1.82756 0 0.517482 0.057498
29 0 0 0 -0.00141041 -1.82811 0 0.517482 0.057498
30 0 0 0 -0.00141084 -1.82866 0 0.517482 0.057498
31 0 0 0 -0.00141127 -1.82922 0 0.517482 0.057498
32 0 0 0 -0.00141171 -1.82979 0 0.517482 0.057498
33 0 0 0 -0.00141215 -1.83036 0 0.517483 0.0574981
34 0 0 0 -0.0014126 -1.83093 0 0.517483 0.0574981
35 0 0 0 -0.00141304 -1.83151 0 0.517483 0.0574981
36 0 0 0 -0.00141349 -1.83209 0 0.517483 0.0574981
37 0 0 0 -0.00141393 -1.83266 0 0.517483 0.0574981
38 0 0 0 -0.00141437 -1.83324 0 0.517483 0.0574981
39 0 0 0 -0.00141481 -1.83381 0 0.517483 0.0574981
40 0 0 0 -0.00141525 -1.83437 0 0.517483 0.0574981
41 0 0 0 -0.00141568 -1.83493 0 0.517483 0.0574982
42 0 0 0 -0.0014161 -1.83548 0 0.517484 0.0574982
43 0 0 0 -0.00141652 -1.83602 0 0.517484 0.0574982
44 0 0 0 -0.00141693 -1.83656 0 0.517484 0.0574982
45 0 0 0 -0.00141734 -1.83708 0 0.517484 0.0574982
46 0 0 0 -0.00141773 -1.83759 0 0.517484 0.0574982
47 0 0 0 -0.00141812 -1.83809 0 0.517484 0.0574982
48 0 0 0 -0.00141849 -1.83858 0 0.517484 0.0574983
49 0 0 0 -0.00141886 -1.83905 0 0.517485 0.0574983
50 0 0 0 -0.00141922 -1.83951 0 0.517485 0.0574983
51 0 0 0 -0.00141956 -1.83996 0 0.517485 0.0574983
52 0 0 0 -0.0014199 -1.8404 0 0.517485 0.0574983
53 0 0 0 -0.00142023 -1.84082 0 0.517485 0.0574984
54 0 0 0 -0.00142054 -1.84123 0 0.517485 0.0574984
55 0 0 0 -0.00142085 -1.84163 0 0.517486 0.0574984
56 0 0 0 -0.00142115 -1.84202 0 0.517486 0.0574984
57 0 0 0 -0.00142143 -1.84239 0 0.517486 0.0574984
58 0 0 0 -0.00142171 -1.84275 0 0.517486 0.0574985
59 0 0 0 -0.00142198 -1.8431 0 0.517486 0.0574985
60 0 0 0 -0.00142224 -1.84344 0 0.517486 0.0574985
61 0 0 0 -0.0014225 -1.84377 0 0.517487 0.0574985
62 0 0 0 -0.00142274 -1.84409 0 0.517487 0.0574985
63 0 0 0 -0.00142298 -1.8444 0 0.517487 0.0574986
64 0 0 0 -0.00142322 -1.8447 0 0.517487 0.0574986
65 0 0 0 -0.00142344 -1.845 0 0.517488 0.0574986
66 0 0 0 -0.00142367 -1.84528 0 0.517488 0.0574986
67 0 0 0 -0.00142388 -1.84556 0 0.517488 0.0574987
68 0 0 0 -0.00142409 -1.84584 0 0.517488 0.0574987
69 0 0 0 -0.0014243 -1.84611 0 0.517488 0.0574987
70 0 0 0 -0.0014245 -1.84637 0 0.517489 0.0574988
71 0 0 0 -0.0014247 -1.84663 0 0.517489 0.0574988
72 0 0 0 -0.0014249 -1.84688 0 0.517489 0.0574988
73 0 0 0 -0.00142509 -1.84713 0 0.517489 0.0574988
74 0 0 0 -0.00142528 -1.84738 0 0.51749 0.0574989
75 0 0 0 -0.00142547 -1.84762 0 0.51749 0.0574989
76 0 0 0 -0.00142566 -1.84786 0 0.51749 0.0574989
77 0 0 0 -0.00142584 -1.8481 0 0.51749 0.057499
78 0 0 0 -0.00142603 -1.84835 0 0.517491 0.057499
79 0 0 0 -0.00142622 -1.84859 0 0.517491 0.057499
80 0 0 0 -0.0014264 -1.84883 0 0.517491 0.057499
81 0 0 0 -0.00142659 -1.84907 0 0.517492 0.0574991
82 0 0 0 -0.00142678 -1.84932 0 0.517492 0.0574991
83 0 0 0 -0.00142697 -1.84956 0 0.517492 0.0574991
84 0 0 0 -0.00142716 -1.84981 0 0.517492 0.0574992
85 0 0 0 -0.00142735 -1.85006 0 0.517493 0.0574992
86 0 0 0 -0.00142755 -1.85031 0 0.517493 0.0574992
87 0 0 0 -0.00142774 -1.85056 0 0.517493 0.0574993
88 0 0 0 -0.00142794 -1.85082 0 0.517494 0.0574993
89 0 0 0 -0.00142814 -1.85108 0 0.517494 0.0574993
90 0 0 0 -0.00142834 -1.85134 0 0.517494 0.0574994
91 0 0 0 -0.00142854 -1.8516 0 0.517494 0.0574994
92 0 0 0 -0.00142874 -1.85186 0 0.517495 0.0574994
93 0 0 0 -0.00142894 -1.85212 0 0.517495 0.0574994
94 0 0 0 -0.00142915 -1.85239 0 0.517495 0.0574995
95 0 0 0 -0.00142935 -1.85265 0 0.517496 0.0574995
96 0 0 0 -0.00142956 -1.85292 0 0.517496 0.0574995
97 0 0 0 -0.00142977 -1.85319 0 0.517496 0.0574996
98 0 0 0 -0.00142998 -1.85347 0 0.517496 0.0574996
99 0 0 0 -0.00143019 -1.85374 0 0.517497 0.0574996
100 0 0 0 -0.0014304 -1.85401 0 0.517497 0.0574997
101 0 0 0 -0.00143062 -1.85429 0 0.517497 0.0574997
102 0 0 0 -0.00143083 -1.85457 0 0.517497 0.0574997
103 0 0 0 -0.00143104 -1.85485 0 0.517498 0.0574997
104 0 0 0 -0.00143126 -1.85512 0 0.517498 0.0574998
105 0 0 0 -0.00143148 -1.8554 0 0.517498 0.0574998
106 0 0 0 -0.00143169 -1.85568 0 0.517498 0.0574998
107 0 0 0 -0.00143191 -1.85596 0 0.517499 0.0574999
108 0 0 0 -0.00143212 -1.85624 0 0.517499 0.0574999
109 0 0 0 -0.00143234 -1.85652 0 0.517499 0.0574999
110 0 0 0 -0.00143256 -1.8568 0 0.517499 0.0574999
111 0 0 0 -0.00143277 -1.85708 0 0.5175 0.0575
112 0 0 0 -0.00143298 -1.85736 0 0.5175 0.0575
113 0 0 0 -0.0014332 -1.85764 0 0.5175 0.0575
114 0 0 0 -0.00143341 -1.85791 0 0.5175 0.0575
115 0 0 0 -0.00143362 -1.85818 0 0.5175 0.0575
116 0 0 0 -0.00143383 -1.85845 0 0.517501 0.0575001
117 0 0 0 -0.00143403 -1.85872 0 0.517501 0.0575001
118 0 0 0 -0.00143424 -1.85898 0 0.517501 0.0575001
119 0 0 0 -0.00143444 -1.85924 0 0.517501 0.0575001
120 0 0 0 -0.00143464 -1.8595 0 0.517501 0.0575001
121 0 0 0 -0.00143483 -1.85975 0 0.517501 0.0575002
122 0 0 0 -0.00143502 -1.86 0 0.517502 0.0575002
123 0 0 0 -0.00143521 -1.86024 0 0.517502 0.0575002
124 0 0 0 -0.00143539 -1.86048 0 0.517502 0.0575002
125 0 0 0 -0.00143557 -1.86071 0 0.517502 0.0575002
126 0 0 0 -0.00143574 -1.86094 0 0.517502 0.0575002
127 0 0 0 -0.00143591 -1.86115 0 0.517502 0.0575002
128 0 0 0 -0.00143607 -1.86137 0 0.517502 0.0575003
129 0 0 0 -0.00143623 -1.86157 0 0.517502 0.0575003
130 0 0 0 -0.00143638 -1.86176 0 0.517503 0.0575003
131 0 0 0 -0.00143653 -1.86195 0 0.517503 0.0575003
132 0 0 0 -0.00143667 -1.86213 0 0.517503 0.0575003
133 0 0 0 -0.0014368 -1.8623 0 0.517503 0.0575003
134 0 0 0 -0.00143692 -1.86246 0 0.517503 0.0575003
135 0 0 0 -0.00143704 -1.86261 0 0.517503 0.0575003
136 0 0 0 -0.00143715 -1.86276 0 0.517503 0.0575003
137 0 0 0 -0.00143725 -1.86289 0 0.517503 0.0575003
138 0 0 0 -0.00143734 -1.86301 0 0.517503 0.0575004
139 0 0 0 -0.00143743 -1.86312 0 0.517503 0.0575004
140 0 0 0 -0.0014375 -1.86322 0 0.517503 0.0575004
141 0 0 0 -0.00143757 -1.86331 0 0.517503 0.0575004
142 0 0 0 -0.00143763 -1.86338 0 0.517503 0.0575004
143 0 0 0 -0.00143768 -1.86345 0 0.517503 0.0575004
144 0 0 0 -0.00143772 -1.8635 0 0.517503 0.0575004
145 0 0 0 -0.00143776 -1.86354 0 0.517503 0.0575004
146 0 0 0 -0.00143778 -1.86357 0 0.517503 0.0575004
147 0 0 0 -0.00143779 -1.86359 0 0.517503 0.0575004
148 0 0 0 -0.0014378 -1.8636 0 0.517503 0.0575004
149 0 0 0 -0.0014378 -1.8636 0 0.517503 0.0575004
0 1 0 0 -0.0014038 -1.81953 0 0.517481 0.0574979
1 1 0 0 -0.0014038 -1.81953 0 0.517481 0.0574979
2 1 0 0 -0.00140381 -1.81954 0 0.517481 0.0574979
3 1 0 0 -0.00140383 -1.81957 0 0.517481 0.0574979
4 1 0 0 -0.00140387 -1.81963 0 0.517481 0.0574979
5 1 0 0 -0.00140394 -1.81971 0 0.517481 0.0574979
6 1 0 0 -0.00140402 -1.81981 0 0.517481 0.0574979
7 1 0 0 -0.00140412 -1.81994 0 0.517481 0.0574979
8 1 0 0 -0.00140423 -1.8201 0 0.517481 0.0574979
9 1 0 0 -0.00140437 -1.82027 0 0.517481 0.0574979
10 1 0 0 -0.00140452 -1.82047 0 0.517481 0.0574979
11 1 0 0 -0.0014047 -1.82069 0 0.517481 0.0574979
12 1 0 0 -0.00140489 -1.82094 0 0.517481 0.0574979
13 1 0 0 -0.00140509 -1.82121 0 0.517481 0.0574979
14 1 0 0 -0.00140532 -1.8215 0 0.517481 0.0574979
15 1 0 0 -0.00140556 -1.82181 0 0.517481 0.0574979
16 1 0 0 -0.00140581 -1.82214 0 0.517481 0.0574979
17 1 0 0 -0.00140608 -1.82249 0 0.517481 0.0574979
18 1 0 0 -0.00140637 -1.82287 0 0.517481 0.0574979
19 1 0 0 -0.00140668 -1.82326 0 0.517481 0.0574979
20 1 0 0 -0.00140699 -1.82367 0 0.517481 0.0574979
21 1 0 0 -0.00140733 -1.8241 0 0.517482 0.057498
22 1 0 0 -0.00140767 -1.82455 0 0.517482 0.057498
23 1 0 0 -0.00140803 -1.82502 0 0.517482 0.057498
24 1 0 0 -0.0014084 -1.8255 0 0.517482 0.057498
25 1 0 0 -0.00140878 -1.82599 0 0.517482 0.057498
26 1 0 0 -0.00140918 -1.8265 0 0.517482 0.057498
27 1 0 0 -0.00140958 -1.82703 0 0.517482 0.057498
28 1 0 0 -0.00140999 -1.82756 0 0.517482 0.057498
29 1 0 0 -0.00141041 -1.82811 0 0.517482 0.057498
30 1 0 0 -0.00141084 -1.82866 0 0.517482 0.057498
31 1 0 0 -0.00141127 -1.82922 0 0.517482 0.057498
32 1 0 0 -0.00141171 -1.82979 0 0.517482 0.057498
33 1 0 0 -0.00141215 -1.83036 0 0.517482 0.0574981
34 1 0 0 -0.0014126 -1.83093 0 0.517483 0.0574981
35 1 0 0 -0.00141304 -1.83151 0 0.517483 0.0574981
36 1 0 0 -0.00141349 -1.83209 0 0.517483 0.0574981
37 1 0 0 -0.00141393 -1.83266 0 0.517483 0.0574981
38 1 0 0 -0.00141437 -1.83324 0 0.517483 0.0574981
39 1 0 0 -0.00141481 -1.83381 0 0.517483 0.0574981
40 1 0 0 -0.00141525 -1.83437 0 0.517483 0.0574981
41 1 0 0 -0.00141568 -1.83493 0 0.517483 0.0574982
42 1 0 0 -0.0014161 -1.83548 0 0.517483 0.0574982
43 1 0 0 -0.00141652 -1.83602 0 0.517484 0.0574982
44 1 0 0 -0.00141693 -1.83656 0 0.517484 0.0574982
45 1 0 0 -0.00141734 -1.83708 0 0.517484 0.0574982
46 1 0 0 -0.00141773 -1.83759 0 0.517484 0.0574982
47 1 0 0 -0.00141812 -1.83809 0 0.517484 0.0574982
48 1 0 0 -0.00141849 -1.83858 0 0.517484 0.0574983
49 1 0 0 -0.00141886 -1.83905 0 0.517484 0.0574983
50 1 0 0 -0.00141922 -1.83951 0 0.517485 0.0574983
51 1 0 0 -0.00141956 -1.83996 0 0.517485 0.0574983
52 1 0 0 -0.0014199 -1.8404 0 0.517485 0.0574983
53 1 0 0 -0.00142023 -1.84082 0 0.517485 0.0574984
54 1 0 0 -0.00142054 -1.84123 0 0.517485 0.0574984
55 1 0 0 -0.00142085 -1.84163 0 0.517485 0.0574984
56 1 0 0 -0.00142115 -1.84202 0 0.517486 0.0574984
57 1 0 0 -0.00142143 -1.84239 0 0.517486 0.0574984
58 1 0 0 -0.00142171 -1.84275 0 0.517486 0.0574985
59 1 0 0 -0.00142198 -1.8431 0 0.517486 0.0574985
60 1 0 0 -0.00142224 -1.84344 0 0.517486 0.0574985
61 1 0 0 -0.0014225 -1.84377 0 0.517487 0.0574985
62 1 0 0 -0.00142274 -1.84409 0 0.517487 0.0574985
63 1 0 0 -0.00142298 -1.8444 0 0.517487 0.0574986
64 1 0 0 -0.00142322 -1.8447 0 0.517487 0.0574986
65 1 0 0 -0.00142345 -1.845 0 0.517488 0.0574986
66 1 0 0 -0.00142367 -1.84528 0 0.517488 0.0574986
67 1 0 0 -0.00142388 -1.84556 0 0.517488 0.0574987
68 1 0 0 -0.00142409 -1.84584 0 0.517488 0.0574987
69 1 0 0 -0.0014243 -1.84611 0 0.517488 0.0574987
70 1 0 0 -0.0014245 -1.84637 0 0.517489 0.0574988
71 1 0 0 -0.0014247 -1.84663 0 0.517489 0.0574988
72 1 0 0 -0.0014249 -1.84688 0 0.517489 0.0574988
73 1 0 0 -0.00142509 -1.84713 0 0.517489 0.0574988
74 1 0 0 -0.00142528 -1.84738 0 0.51749 0.0574989
75 1 0 0 -0.00142547 -1.84762 0 0.51749 0.0574989
76 1 0 0 -0.00142566 -1.84786 0 0.51749 0.0574989
77 1 0 0 -0.00142584 -1.8481 0 0.51749 0.057499
78 1 0 0 -0.00142603 -1.84835 0 0.517491 0.057499
79 1 0 0 -0.00142622 -1.84859 0 0.517491 0.057499
80 1 0 0 -0.0014264 -1.84883 0 0.517491 0.057499
81 1 0 0 -0.00142659 -1.84907 0 0.517492 0.0574991
82 1 0 0 -0.00142678 -1.84932 0 0.517492 0.0574991
83 1 0 0 -0.00142697 -1.84956 0 0.517492 0.0574991
84 1 0 0 -0.00142716 -1.84981 0 0.517492 0.0574992
85 1 0 0 -0.00142735 -1.85006 0 0.517493 0.0574992
86 1 0 0 -0.00142755 -1.85031 0 0.517493 0.0574992
87 1 0 0 -0.00142774 -1.85056 0 0.517493 0.0574993
88 1 0 0 -0.00142794 -1.85082 0 0.517494 0.0574993
89 1 0 0 -0.00142814 -1.85108 0 0.517494 0.0574993
90 1 0 0 -0.00142834 -1.85134 0 0.517494 0.0574994
91 1 0 0 -0.00142854 -1.8516 0 0.517494 0.0574994
92 1 0 0 -0.00142874 -1.85186 0 0.517495 0.0574994
93 1 0 0 -0.00142894 -1.85212 0 0.517495 0.0574994
94 1 0 0 -0.00142915 -1.85239 0 0.517495 0.0574995
95 1 0 0 -0.00142935 -1.85265 0 0.517495 0.0574995
96 1 0 0 -0.00142956 -1.85292 0 0.517496 0.0574995
97 1 0 0 -0.00142977 -1.85319 0 0.517496 0.0574996
98 1 0 0 -0.00142998 -1.85347 0 0.517496 0.0574996
99 1 0 0 -0.00143019 -1.85374 0 0.517497 0.0574996
100 1 0 0 -0.0014304 -1.85401 0 0.517497 0.0574997
101 1 0 0 -0.00143062 -1.85429 0 0.517497 0.0574997
102 1 0 0 -0.00143083 -1.85457 0 0.517497 0.0574997
103 1 0 0 -0.00143104 -1.85485 0 0.517498 0.0574997
104 1 0 0 -0.00143126 -1.85512 0 0.517498 0.0574998
105 1 0 0 -0.00143148 -1.8554 0 0.517498 0.0574998
106 1 0 0 -0.00143169 -1.85568 0 0.517498 0.0574998
107 1 0 0 -0.00143191 -1.85596 0 0.517499 0.0574999
108 1 0 0 -0.00143212 -1.85624 0 0.517499 0.0574999
109 1 0 0 -0.00143234 -1.85652 0 0.517499 0.0574999
110 1 0 0 -0.00143256 -1.8568 0 0.517499 0.0574999
111 1 0 0 -0.00143277 -1.85708 0 0.517499 0.0575
112 1 0 0 -0.00143298 -1.85736 0 0.5175 0.0575
113 1 0 0 -0.0014332 -1.85764 0 0.5175 0.0575
114 1 0 0 -0.00143341 -1.85791 0 0.5175 0.0575
115 1 0 0 -0.00143362 -1.85818 0 0.5175 0.0575
116 1 0 0 -0.00143383 -1.85845 0 0.5175 0.0575001
117 1 0 0 -0.00143403 -1.85872 0 0.517501 0.0575001
118 1 0 0 -0.00143424 -1.85898 0 0.517501 0.0575001
119 1 0 0 -0.00143444 -1.85924 0 0.517501 0.0575001
120 1 0 0 -0.00143464 -1.8595 0 0.517501 0.0575001
121 1 0 0 -0.00143483 -1.85975 0 0.517501 0.0575002
122 1 0 0 -0.00143502 -1.86 0 0.517501 0.0575002
123 1 0 0 -0.00143521 -1.86024 0 0.517502 0.0575002
124 1 0 0 -0.00143539 -1.86048 0 0.517502 0.0575002
125 1 0 0 -0.00143557 -1.86071 0 0.517502 0.0575002
126 1 0 0 -0.00143574 -1.86094 0 0.517502 0.0575002
127 1 0 0 -0.00143591 -1.86115 0 0.517502 0.0575002
128 1 0 0 -0.00143607 -1.86137 0 0.517502 0.0575003
129 1 0 0 -0.00143623 -1.86157 0 0.517502 0.0575003
130 1 0 0 -0.00143638 -1.86176 0 0.517503 0.0575003
131 1 0 0 -0.00143653 -1.86195 0 0.517503 0.0575003
132 1 0 0 -0.00143667 -1.86213 0 0.517503 0.0575003
133 1 0 0 -0.0014368 -1.8623 0 0.517503 0.0575003
134 1 0 0 -0.00143692 -1.86246 0 0.517503 0.0575003
135 1 0 0 -0.00143704 -1.86261 0 0.517503 0.0575003
136 1 0 0 -0.00143715 -1.86276 0 0.517503 0.0575003
137 1 0 0 -0.00143725 -1.86289 0 0.517503 0.0575003
138 1 0 0 -0.00143734 -1.86301 0 0.517503 0.0575004
139 1 0 0 -0.00143743 -1.86312 0 0.517503 0.0575004
140 1 0 0 -0.0014375 -1.86322 0 0.517503 0.0575004
141 1 0 0 -0.00143757 -1.86331 0 0.517503 0.0575004
142 1 0 0 -0.00143763 -1.86338 0 0.517503 0.0575004
143 1 0 0 -0.00143768 -1.86345 0 0.517503 0.0575004
144 1 0 0 -0.00143772 -1.8635 0 0.517503 0.0575004
145 1 0 0 -0.00143776 -1.86354 0 0.517503 0.0575004
146 1 0 0 -0.00143778 -1.86357 0 0.517503 0.0575004
147 1 0 0 -0.00143779 -1.86359 0 0.517503 0.0575004
148 1 0 0 -0.0014378 -1.8636 0 0.517503 0.0575004
149 1 0 0 -0.0014378 -1.8636 0 0.517503 0.0575004
0 2 0 0 -0.00140376 -1.81949 0 0.517481 0.0574978
1 2 0 0 -0.00140376 -1.81949 0 0.51748 0.0574978
2 2 0 0 -0.00140377 -1.8195 0 0.51748 0.0574978
3 2 0 0 -0.0014038 -1.81953 0 0.51748 0.0574978
4 2 0 0 -0.00140384 -1.81959 0 0.51748 0.0574978
5 2 0 0 -0.00140391 -1.81967 0 0.517481 0.0574978
6 2 0 0 -0.00140399 -1.81978 0 0.517481 0.0574978
7 2 0 0 -0.00140409 -1.8199 0 0.517481 0.0574978
8 2 0 0 -0.0014042 -1.82006 0 0.517481 0.0574978
9 2 0 0 -0.00140434 -1.82023 0 0.517481 0.0574978
10 2 0 0 -0.00140449 -1.82043 0 0.517481 0.0574978
11 2 0 0 -0.00140467 -1.82065 0 0.517481 0.0574979
12 2 0 0 -0.00140485 -1.8209 0 0.517481 0.0574979
13 2 0 0 -0.00140506 -1.82117 0 0.517481 0.0574979
14 2 0 0 -0.00140528 -1.82146 0 0.517481 0.0574979
15 2 0 0 -0.00140552 -1.82177 0 0.517481 0.0574979
16 2 0 0 -0.00140578 -1.8221 0 0.517481 0.0574979
17 2 0 0 -0.00140605 -1.82245 0 0.517481 0.0574979
18 2 0 0 -0.00140634 -1.82283 0 0.517481 0.0574979
19 2 0 0 -0.00140664 -1.82322 0 0.517481 0.0574979
20 2 0 0 -0.00140696 -1.82363 0 0.517481 0.0574979
21 2 0 0 -0.0014073 -1.82406 0 0.517481 0.0574979
22 2 0 0 -0.00140764 -1.82451 0 0.517481 0.0574979
23 2 0 0 -0.001408 -1.82498 0 0.517481 0.0574979
24 2 0 0 -0.00140837 -1.82546 0 0.517481 0.0574979
25 2 0 0 -0.00140876 -1.82596 0 0.517481 0.0574979
26 2 0 0 -0.00140915 -1.82647 0 0.517481 0.0574979
27 2 0 0 -0.00140955 -1.82699 0 0.517481 0.0574979
28 2 0 0 -0.00140997 -1.82753 0 0.517482 0.057498
29 2 0 0 -0.00141039 -1.82807 0 0.517482 0.057498
30 2 0 0 -0.00141082 -1.82863 0 0.517482 0.057498
31 2 0 0 -0.00141125 -1.82919 0 0.517482 0.057498
32 2 0 0 -0.00141169 -1.82976 0 0.517482 0.057498
33 2 0 0 -0.00141213 -1.83033 0 0.517482 0.057498
34 2 0 0 -0.00141258 -1.83091 0 0.517482 0.057498
35 2 0 0 -0.00141302 -1.83149 0 0.517482 0.057498
36 2 0 0 -0.00141347 -1.83207 0 0.517482 0.057498
37 2 0 0 -0.00141391 -1.83264 0 0.517482 0.0574981
38 2 0 0 -0.00141436 -1.83322 0 0.517483 0.0574981
39 2 0 0 -0.0014148 -1.83379 0 0.517483 0.0574981
40 2 0 0 -0.00141524 -1.83436 0 0.517483 0.0574981
41 2 0 0 -0.00141567 -1.83492 0 0.517483 0.0574981
42 2 0 0 -0.00141609 -1.83547 0 0.517483 0.0574981
43 2 0 0 -0.00141651 -1.83601 0 0.517483 0.0574981
44 2 0 0 -0.00141693 -1.83655 0 0.517483 0.0574982
45 2 0 0 -0.00141733 -1.83707 0 0.517483 0.0574982
46 2 0 0 -0.00141773 -1.83758 0 0.517484 0.0574982
47 2 0 0 -0.00141811 -1.83808 0 0.517484 0.0574982
48 2 0 0 -0.00141849 -1.83857 0 0.517484 0.0574982
49 2 0 0 -0.00141886 -1.83905 0 0.517484 0.0574982
50 2 0 0 -0.00141922 -1.83951 0 0.517484 0.0574983
51 2 0 0 -0.00141956 -1.83996 0 0.517484 0.0574983
52 2 0 0 -0.0014199 -1.8404 0 0.517485 0.0574983
53 2 0 0 -0.00142023 -1.84082 0 0.517485 0.0574983
54 2 0 0 -0.00142054 -1.84124 0 0.517485 0.0574983
55 2 0 0 -0.00142085 -1.84163 0 0.517485 0.0574983
56 2 0 0 -0.00142115 -1.84202 0 0.517485 0.0574984
57 2 0 0 -0.00142144 -1.84239 0 0.517485 0.0574984
58 2 0 0 -0.00142172 -1.84276 0 0.517486 0.0574984
59 2 0 0 -0.00142199 -1.84311 0 0.517486 0.0574984
60 2 0 0 -0.00142225 -1.84345 0 0.517486 0.0574985
61 2 0 0 -0.0014225 -1.84378 0 0.517486 0.0574985
62 2 0 0 -0.00142275 -1.84409 0 0.517486 0.0574985
63 2 0 0 -0.00142299 -1.84441 0 0.517487 0.0574985
64 2 0 0 -0.00142322 -1.84471 0 0.517487 0.0574985
65 2 0 0 -0.00142345 -1.845 0 0.517487 0.0574986
66 2 0 0 -0.00142367 -1.84529 0 0.517487 0.0574986
67 2 0 0 -0.00142389 -1.84557 0 0.517488 0.0574986
68 2 0 0 -0.0014241 -1.84584 0 0.517488 0.0574986
69 2 0 0 -0.00142431 -1.84611 0 0.517488 0.0574987
70 2 0 0 -0.00142451 -1.84637 0 0.517488 0.0574987
71 2 0 0 -0.00142471 -1.84663 0 0.517488 0.0574987
72 2 0 0 -0.0014249 -1.84689 0 0.517489 0.0574988
73 2 0 0 -0.0014251 -1.84714 0 0.517489 0.0574988
74 2 0 0 -0.00142529 -1.84739 0 0.517489 0.0574988
75 2 0 0 -0.00142548 -1.84763 0 0.517489 0.0574988
76 2 0 0 -0.00142567 -1.84787 0 0.51749 0.0574989
77 2 0 0 -0.00142585 -1.84812 0 0.51749 0.0574989
78 2 0 0 -0.00142604 -1.84836 0 0.51749 0.0574989
79 2 0 0 -0.00142623 -1.8486 0 0.517491 0.057499
80 2 0 0 -0.00142641 -1.84884 0 0.517491 0.057499
81 2 0 0 -0.0014266 -1.84909 0 0.517491 0.057499
82 2 0 0 -0.00142679 -1.84933 0 0.517491 0.0574991
83 2 0 0 -0.00142698 -1.84958 0 0.517492 0.0574991
84 2 0 0 -0.00142717 -1.84982 0 0.517492 0.0574991
85 2 0 0 -0.00142736 -1.85007 0 0.517492 0.0574991
86 2 0 0 -0.00142756 -1.85032 0 0.517492 0.0574992
87 2 0 0 -0.00142775 -1.85058 0 0.517493 0.0574992
88 2 0 0 -0.00142795 -1.85083 0 0.517493 0.0574992
89 2 0 0 -0.00142815 -1.85109 0 0.517493 0.0574993
90 2 0 0 -0.00142834 -1.85135 0 0.517494 0.0574993
91 2 0 0 -0.00142854 -1.85161 0 0.517494 0.0574993
92 2 0 0 -0.00142875 -1.85187 0 0.517494 0.0574994
93 2 0 0 -0.00142895 -1.85213 0 0.517494 0.0574994
94 2 0 0 -0.00142915 -1.8524 0 0.517495 0.0574994
95 2 0 0 -0.00142936 -1.85266 0 0.517495 0.0574995
96 2 0 0 -0.00142957 -1.85293 0 0.517495 0.0574995
97 2 0 0 -0.00142978 -1.8532 0 0.517496 0.0574995
98 2 0 0 -0.00142999 -1.85347 0 0.517496 0.0574996
99 2 0 0 -0.0014302 -1.85375 0 0.517496 0.0574996
100 2 0 0 -0.00143041 -1.85402 0 0.517496 0.0574996
101 2 0 0 -0.00143062 -1.8543 0 0.517497 0.0574996
102 2 0 0 -0.00143083 -1.85457 0 0.517497 0.0574997
103 2 0 0 -0.00143105 -1.85485 0 0.517497 0.0574997
104 2 0 0 -0.00143126 -1.85513 0 0.517497 0.0574997
105 2 0 0 -0.00143148 -1.85541 0 0.517498 0.0574998
106 2 0 0 -0.0014317 -1.85569 0 0.517498 0.0574998
107 2 0 0 -0.00143191 -1.85597 0 0.517498 0.0574998
108 2 0 0 -0.00143213 -1.85625 0 0.517498 0.0574998
109 2 0 0 -0.00143234 -1.85653 0 0.517499 0.0574999
110 2 0 0 -0.00143256 -1.85681 0 0.517499 0.0574999
111 2 0 0 -0.00143277 -1.85709 0 0.517499 0.0574999
112 2 0 0 -0.00143299 -1.85736 0 0.517499 0.0574999
113 2 0 0 -0.0014332 -1.85764 0 0.517499 0.0575
114 2 0 0 -0.00143341 -1.85791 0 0.5175 0.0575
115 2 0 0 -0.00143362 -1.85819 0 0.5175 0.0575
116 2 0 0 -0.00143383 -1.85846 0 0.5175 0.0575
117 2 0 0 -0.00143404 -1.85872 0 0.5175 0.0575
118 2 0 0 -0.00143424 -1.85899 0 0.5175 0.0575001
119 2 0 0 -0.00143444 -1.85925 0 0.517501 0.0575001
120 2 0 0 -0.00143464 -1.8595 0 0.517501 0.0575001
121 2 0 0 -0.00143483 -1.85975 0 0.517501 0.0575001
122 2 0 0 -0.00143502 -1.86 0 0.517501 0.0575001
123 2 0 0 -0.00143521 -1.86024 0 0.517501 0.0575001
124 2 0 0 -0.00143539 -1.86048 0 0.517501 0.0575002
125 2 0 0 -0.00143557 -1.86071 0 0.517501 0.0575002
126 2 0 0 -0.00143574 -1.86094 0 0.517502 0.0575002
127 2 0 0 -0.00143591 -1.86115 0 0.517502 0.0575002
128 2 0 0 -0.00143607 -1.86136 0 0.517502 0.0575002
129 2 0 0 -0.00143623 -1.86157 0 0.517502 0.0575002
130 2 0 0 -0.00143638 -1.86176 0 0.517502 0.0575002
131 2 0 0 -0.00143653 -1.86195 0 0.517502 0.0575002
132 2 0 0 -0.00143666 -1.86213 0 0.517502 0.0575003
133 2 0 0 -0.0014368 -1.8623 0 0.517502 0.0575003
134 2 0 0 -0.00143692 -1.86246 0 0.517502 0.0575003
135 2 0 0 -0.00143704 -1.86261 0 0.517503 0.0575003
136 2 0 0 -0.00143714 -1.86275 0 0.517503 0.0575003
137 2 0 0 -0.00143725 -1.86288 0 0.517503 0.0575003
138 2 0 0 -0.00143734 -1.863 0 0.517503 0.0575003
139 2 0 0 -0.00143742 -1.86311 0 0.517503 0.0575003
140 2 0 0 -0.0014375 -1.86321 0 0.517503 0.0575003
141 2 0 0 -0.00143757 -1.8633 0 0.517503 0.0575003
142 2 0 0 -0.00143763 -1.86338 0 0.517503 0.0575003
143 2 0 0 -0.00143768 -1.86344 0 0.517503 0.0575003
144 2 0 0 -0.00143772 -1.8635 0 0.517503 0.0575003
145 2 0 0 -0.00143775 -1.86354 0 0.517503 0.0575003
146 2 0 0 -0.00143778 -1.86357 0 0.517503 0.0575003
147 2 0 0 -0.00143779 -1.86359 0 0.517503 0.0575003
148 2 0 0 -0.0014378 -1.8636 0 0.517503 0.0575003
149 2 0 0 -0.0014378 -1.8636 0 0.517503 0.0575003
0 3 0 0 -0.00140367 -1.81937 0 0.517479 0.0574977
1 3 0 0 -0.00140367 -1.81937 0 0.517479 0.0574977
2 3 0 0 -0.00140368 -1.81938 0 0.517479 0.0574977
3 3 0 0 -0.00140371 -1.81941 0 0.517479 0.0574977
4 3 0 0 -0.00140375 -1.81947 0 0.517479 0.0574977
5 3 0 0 -0.00140381 -1.81955 0 0.517479 0.0574977
6 3 0 0 -0.0014039 -1.81966 0 0.517479 0.0574977
7 3 0 0 -0.00140399 -1.81978 0 0.517479 0.0574977
8 3 0 0 -0.00140411 -1.81994 0 0.51748 0.0574977
9 3 0 0 -0.00140425 -1.82011 0 0.51748 0.0574977
10 3 0 0 -0.0014044 -1.82031 0 0.51748 0.0574977
11 3 0 0 -0.00140457 -1.82053 0 0.51748 0.0574977
12 3 0 0 -0.00140476 -1.82078 0 0.51748 0.0574977
13 3 0 0 -0.00140497 -1.82105 0 0.51748 0.0574977
14 3 0 0 -0.00140519 -1.82134 0 0.51748 0.0574977
15 3 0 0 -0.00140543 -1.82165 0 0.51748 0.0574978
16 3 0 0 -0.00140569 -1.82198 0 0.51748 0.0574978
17 3 0 0 -0.00140596 -1.82233 0 0.51748 0.0574978
18 3 0 0 -0.00140625 -1.82271 0 0.51748 0.0574978
19 3 0 0 -0.00140655 -1.8231 0 0.51748 0.0574978
20 3 0 0 -0.00140687 -1.82352 0 0.51748 0.0574978
21 3 0 0 -0.00140721 -1.82395 0 0.51748 0.0574978
22 3 0 0 -0.00140755 -1.8244 0 0.51748 0.0574978
23 3 0 0 -0.00140791 -1.82487 0 0.51748 0.0574978
24 3 0 0 -0.00140829 -1.82535 0 0.51748 0.0574978
25 3 0 0 -0.00140867 -1.82585 0 0.51748 0.0574978
26 3 0 0 -0.00140907 -1.82636 0 0.51748 0.0574978
27 3 0 0 -0.00140948 -1.82689 0 0.51748 0.0574978
28 3 0 0 -0.00140989 -1.82743 0 0.517481 0.0574978
29 3 0 0 -0.00141032 -1.82798 0 0.517481 0.0574979
30 3 0 0 -0.00141075 -1.82854 0 0.517481 0.0574979
31 3 0 0 -0.00141118 -1.8291 0 0.517481 0.0574979
32 3 0 0 -0.00141162 -1.82967 0 0.517481 0.0574979
33 3 0 0 -0.00141207 -1.83025 0 0.517481 0.0574979
34 3 0 0 -0.00141252 -1.83083 0 0.517481 0.0574979
35 3 0 0 -0.00141297 -1.83142 0 0.517481 0.0574979
36 3 0 0 -0.00141342 -1.832 0 0.517481 0.0574979
37 3 0 0 -0.00141387 -1.83258 0 0.517481 0.0574979
38 3 0 0 -0.00141432 -1.83316 0 0.517482 0.057498
39 3 0 0 -0.00141476 -1.83374 0 0.517482 0.057498
40 3 0 0 -0.0014152 -1.83431 0 0.517482 0.057498
41 3 0 0 -0.00141564 -1.83487 0 0.517482 0.057498
42 3 0 0 -0.00141607 -1.83543 0 0.517482 0.057498
43 3 0 0 -0.00141649 -1.83598 0 0.517482 0.057498
44 3 0 0 -0.00141691 -1.83652 0 0.517482 0.057498
45 3 0 0 -0.00141731 -1.83705 0 0.517482 0.0574981
46 3 0 0 -0.00141771 -1.83756 0 0.517483 0.0574981
47 3 0 0 -0.0014181 -1.83807 0 0.517483 0.0574981
48 3 0 0 -0.00141848 -1.83856 0 0.517483 0.0574981
49 3 0 0 -0.00141885 -1.83904 0 0.517483 0.0574981
50 3 0 0 -0.00141921 -1.83951 0 0.517483 0.0574981
51 3 0 0 -0.00141956 -1.83996 0 0.517483 0.0574982
52 3 0 0 -0.0014199 -1.8404 0 0.517483 0.0574982
53 3 0 0 -0.00142023 -1.84083 0 0.517484 0.0574982
54 3 0 0 -0.00142055 -1.84125 0 0.517484 0.0574982
55 3 0 0 -0.00142086 -1.84165 0 0.517484 0.0574982
56 3 0 0 -0.00142116 -1.84203 0 0.517484 0.0574983
57 3 0 0 -0.00142145 -1.84241 0 0.517484 0.0574983
58 3 0 0 -0.00142173 -1.84277 0 0.517485 0.0574983
59 3 0 0 -0.001422 -1.84313 0 0.517485 0.0574983
60 3 0 0 -0.00142227 -1.84347 0 0.517485 0.0574983
61 3 0 0 -0.00142252 -1.8438 0 0.517485 0.0574984
62 3 0 0 -0.00142277 -1.84412 0 0.517485 0.0574984
63 3 0 0 -0.00142301 -1.84443 0 0.517486 0.0574984
64 3 0 0 -0.00142324 -1.84473 0 0.517486 0.0574984
65 3 0 0 -0.00142347 -1.84503 0 0.517486 0.0574985
66 3 0 0 -0.00142369 -1.84532 0 0.517486 0.0574985
67 3 0 0 -0.00142391 -1.8456 0 0.517486 0.0574985
68 3 0 0 -0.00142412 -1.84587 0 0.517487 0.0574985
69 3 0 0 -0.00142433 -1.84614 0 0.517487 0.0574986
70 3 0 0 -0.00142453 -1.8464 0 0.517487 0.0574986
71 3 0 0 -0.00142473 -1.84666 0 0.517487 0.0574986
72 3 0 0 -0.00142493 -1.84692 0 0.517488 0.0574986
73 3 0 0 -0.00142512 -1.84717 0 0.517488 0.0574987
74 3 0 0 -0.00142531 -1.84742 0 0.517488 0.0574987
75 3 0 0 -0.0014255 -1.84766 0 0.517488 0.0574987
76 3 0 0 -0.00142569 -1.84791 0 0.517489 0.0574988
77 3 0 0 -0.00142588 -1.84815 0 0.517489 0.0574988
78 3 0 0 -0.00142606 -1.84839 0 0.517489 0.0574988
79 3 0 0 -0.00142625 -1.84863 0 0.51749 0.0574988
80 3 0 0 -0.00142644 -1.84888 0 0.51749 0.0574989
81 3 0 0 -0.00142663 -1.84912 0 0.51749 0.0574989
82 3 0 0 -0.00142681 -1.84936 0 0.51749 0.0574989
83 3 0 0 -0.001427 -1.84961 0 0.517491 0.057499
84 3 0 0 -0.0014272 -1.84986 0 0.517491 0.057499
85 3 0 0 -0.00142739 -1.85011 0 0.517491 0.057499
86 3 0 0 -0.00142758 -1.85036 0 0.517491 0.0574991
87 3 0 0 -0.00142777 -1.85061 0 0.517492 0.0574991
88 3 0 0 -0.00142797 -1.85086 0 0.517492 0.0574991
89 3 0 0 -0.00142817 -1.85112 0 0.517492 0.0574992
90 3 0 0 -0.00142837 -1.85137 0 0.517493 0.0574992
91 3 0 0 -0.00142857 -1.85163 0 0.517493 0.0574992
92 3 0 0 -0.00142877 -1.85189 0 0.517493 0.0574993
93 3 0 0 -0.00142897 -1.85216 0 0.517493 0.0574993
94 3 0 0 -0.00142917 -1.85242 0 0.517494 0.0574993
95 3 0 0 -0.00142938 -1.85269 0 0.517494 0.0574993
96 3 0 0 -0.00142959 -1.85295 0 0.517494 0.0574994
97 3 0 0 -0.00142979 -1.85322 0 0.517495 0.0574994
98 3 0 0 -0.00143 -1.85349 0 0.517495 0.0574994
99 3 0 0 -0.00143021 -1.85377 0 0.517495 0.0574995
100 3 0 0 -0.00143042 -1.85404 0 0.517495 0.0574995
101 3 0 0 -0.00143064 -1.85432 0 0.517496 0.0574995
102 3 0 0 -0.00143085 -1.85459 0 0.517496 0.0574996
103 3 0 0 -0.00143106 -1.85487 0 0.517496 0.0574996
104 3 0 0 -0.00143128 -1.85515 0 0.517496 0.0574996
105 3 0 0 -0.00143149 -1.85543 0 0.517497 0.0574996
106 3 0 0 -0.00143171 -1.8557 0 0.517497 0.0574997
107 3 0 0 -0.00143192 -1.85598 0 0.517497 0.0574997
108 3 0 0 -0.00143214 -1.85626 0 0.517497 0.0574997
109 3 0 0 -0.00143235 -1.85654 0 0.517498 0.0574997
110 3 0 0 -0.00143257 -1.85682 0 0.517498 0.0574998
111 3 0 0 -0.00143278 -1.8571 0 0.517498 0.0574998
112 3 0 0 -0.001433 -1.85737 0 0.517498 0.0574998
113 3 0 0 -0.00143321 -1.85765 0 0.517498 0.0574998
114 3 0 0 -0.00143342 -1.85792 0 0.517499 0.0574999
115 3 0 0 -0.00143363 -1.85819 0 0.517499 0.0574999
116 3 0 0 -0.00143383 -1.85846 0 0.517499 0.0574999
117 3 0 0 -0.00143404 -1.85873 0 0.517499 0.0574999
118 3 0 0 -0.00143424 -1.85899 0 0.517499 0.0574999
119 3 0 0 -0.00143444 -1.85925 0 0.5175 0.0575
120 3 0 0 -0.00143464 -1.8595 0 0.5175 0.0575
121 3 0 0 -0.00143483 -1.85976 0 0.5175 0.0575
122 3 0 0 -0.00143502 -1.86 0 0.5175 0.0575
123 3 0 0 -0.00143521 -1.86024 0 0.5175 0.0575
124 3 0 0 -0.00143539 -1.86048 0 0.5175 0.0575
125 3 0 0 -0.00143557 -1.86071 0 0.5175 0.0575001
126 3 0 0 -0.00143574 -1.86093 0 0.517501 0.0575001
127 3 0 0 -0.00143591 -1.86115 0 0.517501 0.0575001
128 3 0 0 -0.00143607 -1.86136 0 0.517501 0.0575001
129 3 0 0 -0.00143623 -1.86156 0 0.517501 0.0575001
130 3 0 0 -0.00143638 -1.86176 0 0.517501 0.0575001
131 3 0 0 -0.00143652 -1.86194 0 0.517501 0.0575001
132 3 0 0 -0.00143666 -1.86212 0 0.517501 0.0575001
133 3 0 0 -0.00143679 -1.86229 0 0.517501 0.0575002
134 3 0 0 -0.00143691 -1.86245 0 0.517501 0.0575002
135 3 0 0 -0.00143703 -1.8626 0 0.517501 0.0575002
136 3 0 0 -0.00143714 -1.86274 0 0.517502 0.0575002
137 3 0 0 -0.00143724 -1.86288 0 0.517502 0.0575002
138 3 0 0 -0.00143733 -1.863 0 0.517502 0.0575002